 # File generated with Atomsk by khaLid on 2020-12-30 21:44:39
 
         800  atoms
           1  atom types
 
      0.00000000     159.54401000  xlo xhi
      0.00000000      34.54228926  ylo yhi
      0.00000000      20.00004000  zlo zhi
    -19.94300000       0.00000000       0.00000000  xy xz yz
 
Masses
 
           1   72.63000000    # Ge
 
Atoms # atomic
 
         1    1       -0.00005975       2.30283080      12.20144440
         2    1        1.99436000       1.15139813      11.54860310
         3    1       -1.99435975       5.75705972      12.20144440
         4    1        0.00006000       4.60562705      11.54860310
         5    1       -3.98865975       9.21128865      12.20144440
         6    1       -1.99424000       8.05985598      11.54860310
         7    1       -5.98295975      12.66551757      12.20144440
         8    1       -3.98854000      11.51408490      11.54860310
         9    1       -7.97725975      16.11974650      12.20144440
        10    1       -5.98284000      14.96831383      11.54860310
        11    1       -9.97155975      19.57397543      12.20144440
        12    1       -7.97714000      18.42254276      11.54860310
        13    1      -11.96585975      23.02820435      12.20144440
        14    1       -9.97144000      21.87677168      11.54860310
        15    1      -13.96015975      26.48243328      12.20144440
        16    1      -11.96574000      25.33100061      11.54860310
        17    1      -15.95445975      29.93666220      12.20144440
        18    1      -13.96004000      28.78522953      11.54860310
        19    1      -17.94875975      33.39089113      12.20144440
        20    1      -15.95434000      32.23945846      11.54860310
        21    1        3.98854050       2.30283080      12.20144440
        22    1        5.98296025       1.15139813      11.54860310
        23    1        1.99424050       5.75705972      12.20144440
        24    1        3.98866025       4.60562705      11.54860310
        25    1       -0.00005950       9.21128865      12.20144440
        26    1        1.99436025       8.05985598      11.54860310
        27    1       -1.99435950      12.66551757      12.20144440
        28    1        0.00006025      11.51408490      11.54860310
        29    1       -3.98865950      16.11974650      12.20144440
        30    1       -1.99423975      14.96831383      11.54860310
        31    1       -5.98295950      19.57397543      12.20144440
        32    1       -3.98853975      18.42254276      11.54860310
        33    1       -7.97725950      23.02820435      12.20144440
        34    1       -5.98283975      21.87677168      11.54860310
        35    1       -9.97155950      26.48243328      12.20144440
        36    1       -7.97713975      25.33100061      11.54860310
        37    1      -11.96585950      29.93666220      12.20144440
        38    1       -9.97143975      28.78522953      11.54860310
        39    1      -13.96015950      33.39089113      12.20144440
        40    1      -11.96573975      32.23945846      11.54860310
        41    1        5.98284075       5.75705972      12.20144440
        42    1        7.97726050       4.60562705      11.54860310
        43    1        3.98854075       9.21128865      12.20144440
        44    1        5.98296050       8.05985598      11.54860310
        45    1        1.99424075      12.66551757      12.20144440
        46    1        3.98866050      11.51408490      11.54860310
        47    1       -0.00005925      16.11974650      12.20144440
        48    1        1.99436050      14.96831383      11.54860310
        49    1       -1.99435925      19.57397543      12.20144440
        50    1        0.00006050      18.42254276      11.54860310
        51    1       -3.98865925      23.02820435      12.20144440
        52    1       -1.99423950      21.87677168      11.54860310
        53    1       -5.98295925      26.48243328      12.20144440
        54    1       -3.98853950      25.33100061      11.54860310
        55    1       -7.97725925      29.93666220      12.20144440
        56    1       -5.98283950      28.78522953      11.54860310
        57    1       -9.97155925      33.39089113      12.20144440
        58    1       -7.97713950      32.23945846      11.54860310
        59    1        7.97714075       2.30283080      12.20144440
        60    1        9.97156050       1.15139813      11.54860310
        61    1        5.98284100      12.66551757      12.20144440
        62    1        7.97726075      11.51408490      11.54860310
        63    1        3.98854100      16.11974650      12.20144440
        64    1        5.98296075      14.96831383      11.54860310
        65    1        1.99424100      19.57397543      12.20144440
        66    1        3.98866075      18.42254276      11.54860310
        67    1       -0.00005900      23.02820435      12.20144440
        68    1        1.99436075      21.87677168      11.54860310
        69    1       -1.99435900      26.48243328      12.20144440
        70    1        0.00006075      25.33100061      11.54860310
        71    1       -3.98865900      29.93666220      12.20144440
        72    1       -1.99423925      28.78522953      11.54860310
        73    1       -5.98295900      33.39089113      12.20144440
        74    1       -3.98853925      32.23945846      11.54860310
        75    1       11.96574100       2.30283080      12.20144440
        76    1       13.96016075       1.15139813      11.54860310
        77    1        9.97144100       5.75705972      12.20144440
        78    1       11.96586075       4.60562705      11.54860310
        79    1        7.97714100       9.21128865      12.20144440
        80    1        9.97156075       8.05985598      11.54860310
        81    1        3.98854125      23.02820435      12.20144440
        82    1        5.98296100      21.87677168      11.54860310
        83    1        1.99424125      26.48243328      12.20144440
        84    1        3.98866100      25.33100061      11.54860310
        85    1       -0.00005875      29.93666220      12.20144440
        86    1        1.99436100      28.78522953      11.54860310
        87    1       -1.99435875      33.39089113      12.20144440
        88    1        0.00006100      32.23945846      11.54860310
        89    1       15.95434125       2.30283080      12.20144440
        90    1       17.94876100       1.15139813      11.54860310
        91    1       13.96004125       5.75705972      12.20144440
        92    1       15.95446100       4.60562705      11.54860310
        93    1       11.96574125       9.21128865      12.20144440
        94    1       13.96016100       8.05985598      11.54860310
        95    1        9.97144125      12.66551757      12.20144440
        96    1       11.96586100      11.51408490      11.54860310
        97    1        7.97714125      16.11974650      12.20144440
        98    1        9.97156100      14.96831383      11.54860310
        99    1        5.98284125      19.57397543      12.20144440
       100    1        7.97726100      18.42254276      11.54860310
       101    1       19.94294150       2.30283080      12.20144440
       102    1       21.93736125       1.15139813      11.54860310
       103    1       17.94864150       5.75705972      12.20144440
       104    1       19.94306125       4.60562705      11.54860310
       105    1       15.95434150       9.21128865      12.20144440
       106    1       17.94876125       8.05985598      11.54860310
       107    1       13.96004150      12.66551757      12.20144440
       108    1       15.95446125      11.51408490      11.54860310
       109    1       11.96574150      16.11974650      12.20144440
       110    1       13.96016125      14.96831383      11.54860310
       111    1        9.97144150      19.57397543      12.20144440
       112    1       11.96586125      18.42254276      11.54860310
       113    1        7.97714150      23.02820435      12.20144440
       114    1        9.97156125      21.87677168      11.54860310
       115    1        5.98284150      26.48243328      12.20144440
       116    1        7.97726125      25.33100061      11.54860310
       117    1        3.98854150      29.93666220      12.20144440
       118    1        5.98296125      28.78522953      11.54860310
       119    1        1.99424150      33.39089113      12.20144440
       120    1        3.98866125      32.23945846      11.54860310
       121    1       13.96004175      19.57397543      12.20144440
       122    1       15.95446150      18.42254276      11.54860310
       123    1       11.96574175      23.02820435      12.20144440
       124    1       13.96016150      21.87677168      11.54860310
       125    1        9.97144175      26.48243328      12.20144440
       126    1       11.96586150      25.33100061      11.54860310
       127    1        7.97714175      29.93666220      12.20144440
       128    1        9.97156150      28.78522953      11.54860310
       129    1        5.98284175      33.39089113      12.20144440
       130    1        7.97726150      32.23945846      11.54860310
       131    1       23.93154175       2.30283080      12.20144440
       132    1       25.92596150       1.15139813      11.54860310
       133    1       21.93724175       5.75705972      12.20144440
       134    1       23.93166150       4.60562705      11.54860310
       135    1       19.94294175       9.21128865      12.20144440
       136    1       21.93736150       8.05985598      11.54860310
       137    1       17.94864175      12.66551757      12.20144440
       138    1       19.94306150      11.51408490      11.54860310
       139    1       15.95434175      16.11974650      12.20144440
       140    1       17.94876150      14.96831383      11.54860310
       141    1       25.92584200       5.75705972      12.20144440
       142    1       27.92026175       4.60562705      11.54860310
       143    1       23.93154200       9.21128865      12.20144440
       144    1       25.92596175       8.05985598      11.54860310
       145    1       21.93724200      12.66551757      12.20144440
       146    1       23.93166175      11.51408490      11.54860310
       147    1       19.94294200      16.11974650      12.20144440
       148    1       21.93736175      14.96831383      11.54860310
       149    1       17.94864200      19.57397543      12.20144440
       150    1       19.94306175      18.42254276      11.54860310
       151    1       15.95434200      23.02820435      12.20144440
       152    1       17.94876175      21.87677168      11.54860310
       153    1       13.96004200      26.48243328      12.20144440
       154    1       15.95446175      25.33100061      11.54860310
       155    1       11.96574200      29.93666220      12.20144440
       156    1       13.96016175      28.78522953      11.54860310
       157    1        9.97144200      33.39089113      12.20144440
       158    1       11.96586175      32.23945846      11.54860310
       159    1       27.92014200       2.30283080      12.20144440
       160    1       29.91456175       1.15139813      11.54860310
       161    1       15.95434225      29.93666220      12.20144440
       162    1       17.94876200      28.78522953      11.54860310
       163    1       13.96004225      33.39089113      12.20144440
       164    1       15.95446200      32.23945846      11.54860310
       165    1       31.90874225       2.30283080      12.20144440
       166    1       33.90316200       1.15139813      11.54860310
       167    1       29.91444225       5.75705972      12.20144440
       168    1       31.90886200       4.60562705      11.54860310
       169    1       27.92014225       9.21128865      12.20144440
       170    1       29.91456200       8.05985598      11.54860310
       171    1       25.92584225      12.66551757      12.20144440
       172    1       27.92026200      11.51408490      11.54860310
       173    1       23.93154225      16.11974650      12.20144440
       174    1       25.92596200      14.96831383      11.54860310
       175    1       21.93724225      19.57397543      12.20144440
       176    1       23.93166200      18.42254276      11.54860310
       177    1       19.94294225      23.02820435      12.20144440
       178    1       21.93736200      21.87677168      11.54860310
       179    1       17.94864225      26.48243328      12.20144440
       180    1       19.94306200      25.33100061      11.54860310
       181    1       23.93154250      23.02820435      12.20144440
       182    1       25.92596225      21.87677168      11.54860310
       183    1       21.93724250      26.48243328      12.20144440
       184    1       23.93166225      25.33100061      11.54860310
       185    1       19.94294250      29.93666220      12.20144440
       186    1       21.93736225      28.78522953      11.54860310
       187    1       17.94864250      33.39089113      12.20144440
       188    1       19.94306225      32.23945846      11.54860310
       189    1       35.89734250       2.30283080      12.20144440
       190    1       37.89176225       1.15139813      11.54860310
       191    1       33.90304250       5.75705972      12.20144440
       192    1       35.89746225       4.60562705      11.54860310
       193    1       31.90874250       9.21128865      12.20144440
       194    1       33.90316225       8.05985598      11.54860310
       195    1       29.91444250      12.66551757      12.20144440
       196    1       31.90886225      11.51408490      11.54860310
       197    1       27.92014250      16.11974650      12.20144440
       198    1       29.91456225      14.96831383      11.54860310
       199    1       25.92584250      19.57397543      12.20144440
       200    1       27.92026225      18.42254276      11.54860310
       201    1       29.91444275      19.57397543      12.20144440
       202    1       31.90886250      18.42254276      11.54860310
       203    1       27.92014275      23.02820435      12.20144440
       204    1       29.91456250      21.87677168      11.54860310
       205    1       25.92584275      26.48243328      12.20144440
       206    1       27.92026250      25.33100061      11.54860310
       207    1       23.93154275      29.93666220      12.20144440
       208    1       25.92596250      28.78522953      11.54860310
       209    1       21.93724275      33.39089113      12.20144440
       210    1       23.93166250      32.23945846      11.54860310
       211    1       39.88594275       2.30283080      12.20144440
       212    1       41.88036250       1.15139813      11.54860310
       213    1       37.89164275       5.75705972      12.20144440
       214    1       39.88606250       4.60562705      11.54860310
       215    1       35.89734275       9.21128865      12.20144440
       216    1       37.89176250       8.05985598      11.54860310
       217    1       33.90304275      12.66551757      12.20144440
       218    1       35.89746250      11.51408490      11.54860310
       219    1       31.90874275      16.11974650      12.20144440
       220    1       33.90316250      14.96831383      11.54860310
       221    1       31.90874300      23.02820435      12.20144440
       222    1       33.90316275      21.87677168      11.54860310
       223    1       29.91444300      26.48243328      12.20144440
       224    1       31.90886275      25.33100061      11.54860310
       225    1       27.92014300      29.93666220      12.20144440
       226    1       29.91456275      28.78522953      11.54860310
       227    1       25.92584300      33.39089113      12.20144440
       228    1       27.92026275      32.23945846      11.54860310
       229    1       43.87454300       2.30283080      12.20144440
       230    1       45.86896275       1.15139813      11.54860310
       231    1       41.88024300       5.75705972      12.20144440
       232    1       43.87466275       4.60562705      11.54860310
       233    1       39.88594300       9.21128865      12.20144440
       234    1       41.88036275       8.05985598      11.54860310
       235    1       37.89164300      12.66551757      12.20144440
       236    1       39.88606275      11.51408490      11.54860310
       237    1       35.89734300      16.11974650      12.20144440
       238    1       37.89176275      14.96831383      11.54860310
       239    1       33.90304300      19.57397543      12.20144440
       240    1       35.89746275      18.42254276      11.54860310
       241    1       37.89164325      19.57397543      12.20144440
       242    1       39.88606300      18.42254276      11.54860310
       243    1       35.89734325      23.02820435      12.20144440
       244    1       37.89176300      21.87677168      11.54860310
       245    1       33.90304325      26.48243328      12.20144440
       246    1       35.89746300      25.33100061      11.54860310
       247    1       31.90874325      29.93666220      12.20144440
       248    1       33.90316300      28.78522953      11.54860310
       249    1       29.91444325      33.39089113      12.20144440
       250    1       31.90886300      32.23945846      11.54860310
       251    1       47.86314325       2.30283080      12.20144440
       252    1       49.85756300       1.15139813      11.54860310
       253    1       45.86884325       5.75705972      12.20144440
       254    1       47.86326300       4.60562705      11.54860310
       255    1       43.87454325       9.21128865      12.20144440
       256    1       45.86896300       8.05985598      11.54860310
       257    1       41.88024325      12.66551757      12.20144440
       258    1       43.87466300      11.51408490      11.54860310
       259    1       39.88594325      16.11974650      12.20144440
       260    1       41.88036300      14.96831383      11.54860310
       261    1       37.89164350      26.48243328      12.20144440
       262    1       39.88606325      25.33100061      11.54860310
       263    1       35.89734350      29.93666220      12.20144440
       264    1       37.89176325      28.78522953      11.54860310
       265    1       33.90304350      33.39089113      12.20144440
       266    1       35.89746325      32.23945846      11.54860310
       267    1       51.85174350       2.30283080      12.20144440
       268    1       53.84616325       1.15139813      11.54860310
       269    1       49.85744350       5.75705972      12.20144440
       270    1       51.85186325       4.60562705      11.54860310
       271    1       47.86314350       9.21128865      12.20144440
       272    1       49.85756325       8.05985598      11.54860310
       273    1       45.86884350      12.66551757      12.20144440
       274    1       47.86326325      11.51408490      11.54860310
       275    1       43.87454350      16.11974650      12.20144440
       276    1       45.86896325      14.96831383      11.54860310
       277    1       41.88024350      19.57397543      12.20144440
       278    1       43.87466325      18.42254276      11.54860310
       279    1       39.88594350      23.02820435      12.20144440
       280    1       41.88036325      21.87677168      11.54860310
       281    1       43.87454375      23.02820435      12.20144440
       282    1       45.86896350      21.87677168      11.54860310
       283    1       41.88024375      26.48243328      12.20144440
       284    1       43.87466350      25.33100061      11.54860310
       285    1       39.88594375      29.93666220      12.20144440
       286    1       41.88036350      28.78522953      11.54860310
       287    1       37.89164375      33.39089113      12.20144440
       288    1       39.88606350      32.23945846      11.54860310
       289    1       55.84034375       2.30283080      12.20144440
       290    1       57.83476350       1.15139813      11.54860310
       291    1       53.84604375       5.75705972      12.20144440
       292    1       55.84046350       4.60562705      11.54860310
       293    1       51.85174375       9.21128865      12.20144440
       294    1       53.84616350       8.05985598      11.54860310
       295    1       49.85744375      12.66551757      12.20144440
       296    1       51.85186350      11.51408490      11.54860310
       297    1       47.86314375      16.11974650      12.20144440
       298    1       49.85756350      14.96831383      11.54860310
       299    1       45.86884375      19.57397543      12.20144440
       300    1       47.86326350      18.42254276      11.54860310
       301    1       41.88024400      33.39089113      12.20144440
       302    1       43.87466375      32.23945846      11.54860310
       303    1       59.82894400       2.30283080      12.20144440
       304    1       61.82336375       1.15139813      11.54860310
       305    1       57.83464400       5.75705972      12.20144440
       306    1       59.82906375       4.60562705      11.54860310
       307    1       55.84034400       9.21128865      12.20144440
       308    1       57.83476375       8.05985598      11.54860310
       309    1       53.84604400      12.66551757      12.20144440
       310    1       55.84046375      11.51408490      11.54860310
       311    1       51.85174400      16.11974650      12.20144440
       312    1       53.84616375      14.96831383      11.54860310
       313    1       49.85744400      19.57397543      12.20144440
       314    1       51.85186375      18.42254276      11.54860310
       315    1       47.86314400      23.02820435      12.20144440
       316    1       49.85756375      21.87677168      11.54860310
       317    1       45.86884400      26.48243328      12.20144440
       318    1       47.86326375      25.33100061      11.54860310
       319    1       43.87454400      29.93666220      12.20144440
       320    1       45.86896375      28.78522953      11.54860310
       321    1       47.86314425      29.93666220      12.20144440
       322    1       49.85756400      28.78522953      11.54860310
       323    1       45.86884425      33.39089113      12.20144440
       324    1       47.86326400      32.23945846      11.54860310
       325    1       63.81754425       2.30283080      12.20144440
       326    1       65.81196400       1.15139813      11.54860310
       327    1       61.82324425       5.75705972      12.20144440
       328    1       63.81766400       4.60562705      11.54860310
       329    1       59.82894425       9.21128865      12.20144440
       330    1       61.82336400       8.05985598      11.54860310
       331    1       57.83464425      12.66551757      12.20144440
       332    1       59.82906400      11.51408490      11.54860310
       333    1       55.84034425      16.11974650      12.20144440
       334    1       57.83476400      14.96831383      11.54860310
       335    1       53.84604425      19.57397543      12.20144440
       336    1       55.84046400      18.42254276      11.54860310
       337    1       51.85174425      23.02820435      12.20144440
       338    1       53.84616400      21.87677168      11.54860310
       339    1       49.85744425      26.48243328      12.20144440
       340    1       51.85186400      25.33100061      11.54860310
       341    1       63.81754450       9.21128865      12.20144440
       342    1       65.81196425       8.05985598      11.54860310
       343    1       61.82324450      12.66551757      12.20144440
       344    1       63.81766425      11.51408490      11.54860310
       345    1       59.82894450      16.11974650      12.20144440
       346    1       61.82336425      14.96831383      11.54860310
       347    1       57.83464450      19.57397543      12.20144440
       348    1       59.82906425      18.42254276      11.54860310
       349    1       55.84034450      23.02820435      12.20144440
       350    1       57.83476425      21.87677168      11.54860310
       351    1       53.84604450      26.48243328      12.20144440
       352    1       55.84046425      25.33100061      11.54860310
       353    1       51.85174450      29.93666220      12.20144440
       354    1       53.84616425      28.78522953      11.54860310
       355    1       49.85744450      33.39089113      12.20144440
       356    1       51.85186425      32.23945846      11.54860310
       357    1       67.80614450       2.30283080      12.20144440
       358    1       69.80056425       1.15139813      11.54860310
       359    1       65.81184450       5.75705972      12.20144440
       360    1       67.80626425       4.60562705      11.54860310
       361    1       69.80044475       5.75705972      12.20144440
       362    1       71.79486450       4.60562705      11.54860310
       363    1       67.80614475       9.21128865      12.20144440
       364    1       69.80056450       8.05985598      11.54860310
       365    1       65.81184475      12.66551757      12.20144440
       366    1       67.80626450      11.51408490      11.54860310
       367    1       63.81754475      16.11974650      12.20144440
       368    1       65.81196450      14.96831383      11.54860310
       369    1       61.82324475      19.57397543      12.20144440
       370    1       63.81766450      18.42254276      11.54860310
       371    1       59.82894475      23.02820435      12.20144440
       372    1       61.82336450      21.87677168      11.54860310
       373    1       57.83464475      26.48243328      12.20144440
       374    1       59.82906450      25.33100061      11.54860310
       375    1       55.84034475      29.93666220      12.20144440
       376    1       57.83476450      28.78522953      11.54860310
       377    1       53.84604475      33.39089113      12.20144440
       378    1       55.84046450      32.23945846      11.54860310
       379    1       71.79474475       2.30283080      12.20144440
       380    1       73.78916450       1.15139813      11.54860310
       381    1       63.81754500      23.02820435      12.20144440
       382    1       65.81196475      21.87677168      11.54860310
       383    1       61.82324500      26.48243328      12.20144440
       384    1       63.81766475      25.33100061      11.54860310
       385    1       59.82894500      29.93666220      12.20144440
       386    1       61.82336475      28.78522953      11.54860310
       387    1       57.83464500      33.39089113      12.20144440
       388    1       59.82906475      32.23945846      11.54860310
       389    1       75.78334500       2.30283080      12.20144440
       390    1       77.77776475       1.15139813      11.54860310
       391    1       73.78904500       5.75705972      12.20144440
       392    1       75.78346475       4.60562705      11.54860310
       393    1       71.79474500       9.21128865      12.20144440
       394    1       73.78916475       8.05985598      11.54860310
       395    1       69.80044500      12.66551757      12.20144440
       396    1       71.79486475      11.51408490      11.54860310
       397    1       67.80614500      16.11974650      12.20144440
       398    1       69.80056475      14.96831383      11.54860310
       399    1       65.81184500      19.57397543      12.20144440
       400    1       67.80626475      18.42254276      11.54860310
       401    1       69.80044525      19.57397543      12.20144440
       402    1       71.79486500      18.42254276      11.54860310
       403    1       67.80614525      23.02820435      12.20144440
       404    1       69.80056500      21.87677168      11.54860310
       405    1       65.81184525      26.48243328      12.20144440
       406    1       67.80626500      25.33100061      11.54860310
       407    1       63.81754525      29.93666220      12.20144440
       408    1       65.81196500      28.78522953      11.54860310
       409    1       61.82324525      33.39089113      12.20144440
       410    1       63.81766500      32.23945846      11.54860310
       411    1       79.77194525       2.30283080      12.20144440
       412    1       81.76636500       1.15139813      11.54860310
       413    1       77.77764525       5.75705972      12.20144440
       414    1       79.77206500       4.60562705      11.54860310
       415    1       75.78334525       9.21128865      12.20144440
       416    1       77.77776500       8.05985598      11.54860310
       417    1       73.78904525      12.66551757      12.20144440
       418    1       75.78346500      11.51408490      11.54860310
       419    1       71.79474525      16.11974650      12.20144440
       420    1       73.78916500      14.96831383      11.54860310
       421    1       81.76624550       5.75705972      12.20144440
       422    1       83.76066525       4.60562705      11.54860310
       423    1       79.77194550       9.21128865      12.20144440
       424    1       81.76636525       8.05985598      11.54860310
       425    1       77.77764550      12.66551757      12.20144440
       426    1       79.77206525      11.51408490      11.54860310
       427    1       75.78334550      16.11974650      12.20144440
       428    1       77.77776525      14.96831383      11.54860310
       429    1       73.78904550      19.57397543      12.20144440