LAMMPS (29 Oct 2020)
OMP_NUM_THREADS environment is not set. Defaulting to 1 thread. (src/comm.cpp:94)
  using 1 OpenMP thread(s) per MPI task
# sample LAMMPS input script for thermal conductivity of Ge
# Muller-Plathe method via fix thermal_conductivity


# setup problem
variable    t equal 300
variable    dt equal 0.001

units		metal
boundary    p p p
atom_style	atomic

read_data   germaneneml_40x10.lmp
Reading data file ...
  triclinic box = (0.0000000 0.0000000 0.0000000) to (159.54401 34.542289 20.000040) with tilt (-19.943000 0.0000000 0.0000000)
  2 by 1 by 1 MPI processor grid
  reading atoms ...
  800 atoms
  read_data CPU = 0.007 seconds
replicate       4 1 1
Replicating atoms ...
  triclinic box = (0.0000000 0.0000000 0.0000000) to (638.17604 34.542289 20.000040) with tilt (-19.943000 0.0000000 0.0000000)
  2 by 1 by 1 MPI processor grid
  3200 atoms
  replicate CPU = 0.001 seconds
mass		1  72.63000000

pair_style      tersoff
pair_coeff      * * Ge.tersoff Ge
Reading tersoff potential file Ge.tersoff with DATE: 2016-12-21

neighbor	2.0 bin
neigh_modify	 delay 0 every 1 check yes
timestep     ${dt}
timestep     0.001

# 1st equilibration run
velocity	all create $t 345352 mom yes rot yes dist gaussian
velocity	all create 300 345352 mom yes rot yes dist gaussian

fix		1 all nvt temp $t $t 10 drag 0.2
fix		1 all nvt temp 300 $t 10 drag 0.2
fix		1 all nvt temp 300 300 10 drag 0.2
thermo	 1000
run		500000
Neighbor list info ...
  update every 1 steps, delay 0 steps, check yes
  max neighbors/atom: 2000, page size: 100000
  master list distance cutoff = 5.1
  ghost atom cutoff = 5.1
  binsize = 2.55, bins = 259 14 8
  1 neighbor lists, perpetual/occasional/extra = 1 0 0
  (1) pair tersoff, perpetual
      attributes: full, newton on
      pair build: full/bin/atomonly
      stencil: full/bin/3d
      bin: standard
Per MPI rank memory allocation (min/avg/max) = 3.226 | 3.226 | 3.226 Mbytes
Step Temp E_pair E_mol TotEng Press 
       0          300    -10125.42            0   -10001.369    1825.8979 
    1000    180.64924   -10075.765            0   -10001.066    -576.5887 
    2000    181.26202   -10075.212            0    -10000.26    -1365.414 
    3000    190.61188   -10078.024            0    -9999.205    -1244.119 
    4000    187.53835   -10075.782            0   -9998.2346   -1239.9791 
    5000    191.19344   -10076.383            0   -9997.3234   -1270.1121 
    6000    194.89932   -10076.916            0   -9996.3244   -1198.0957 
    7000    193.35966   -10075.164            0   -9995.2093   -1247.4188 
    8000    197.37905   -10075.637            0   -9994.0202    -1301.093 
    9000    196.81743   -10074.173            0   -9992.7886   -1254.5712 
   10000    198.01916    -10073.41            0   -9991.5282   -1234.1233 
   11000    197.35901   -10071.852            0   -9990.2432   -1179.5798 
   12000    201.94753   -10072.441            0   -9988.9349   -1291.6398 
   13000    201.65152   -10070.985            0   -9987.6017   -1237.3744 
   14000    203.76809   -10070.511            0   -9986.2527   -1201.4297 
   15000    202.15598    -10068.48            0   -9984.8876   -1259.0246 
   16000    207.62799   -10069.359            0   -9983.5044   -1220.7673 
   17000    206.25071   -10067.395            0   -9982.1096   -1284.0761 
   18000    206.10934   -10065.931            0    -9980.704   -1195.9847 
   19000    208.74544   -10065.608            0   -9979.2915   -1199.2742 
   20000    213.58447   -10066.186            0    -9977.868   -1200.6047 
   21000     211.0575   -10063.712            0    -9976.439   -1151.4142 
   22000    216.19724   -10064.405            0   -9975.0064   -1244.2674 
   23000    216.31639    -10063.01            0    -9973.563   -1242.6378 
   24000    217.38408    -10062.01            0   -9972.1214   -1122.4009 
   25000    217.75601    -10060.72            0   -9970.6771   -1184.7413 
   26000    220.70583   -10060.494            0   -9969.2313   -1236.6984 
   27000    224.24902   -10060.509            0   -9967.7809   -1168.4621 
   28000    225.38497   -10059.528            0   -9966.3308   -1082.6572 
   29000    227.18662   -10058.829            0   -9964.8865   -1197.1141 
   30000    220.15254    -10054.47            0   -9963.4365   -1197.6988 
   31000    228.62454   -10056.531            0    -9961.994   -1213.3767 
   32000    226.87683   -10054.368            0   -9960.5537   -1078.9113 
   33000    232.56651   -10055.284            0   -9959.1167   -1213.4803 
   34000    233.81501   -10054.367            0   -9957.6839   -1149.8181 
   35000    232.97424   -10052.593            0   -9956.2571   -1069.4055 
   36000    237.67534   -10053.114            0   -9954.8348   -1102.8574 
   37000    241.86296   -10053.433            0   -9953.4217   -1136.3866 
   38000    236.29726   -10049.721            0   -9952.0113   -1224.9102 
   39000    244.03423    -10051.52            0   -9950.6113   -1152.4325 
   40000    246.65214    -10051.21            0   -9949.2182   -1087.8768 
   41000    248.66628   -10050.658            0   -9947.8334   -1090.7647 
   42000    245.42373   -10047.943            0     -9946.46   -1118.5068 
   43000    244.73397   -10046.293            0   -9945.0947   -1081.7577 
   44000    249.56591   -10046.933            0   -9943.7365   -1056.0971 
   45000     247.7303   -10044.831            0   -9942.3938   -1119.0298 
   46000    251.12071   -10044.899            0   -9941.0597   -1093.7046 
   47000    252.46551   -10044.133            0   -9939.7372   -1049.2193 
   48000    257.73453   -10044.997            0   -9938.4234   -995.17828 
   49000    252.58338   -10041.574            0   -9937.1298   -1114.4878 
   50000    259.15519   -10043.009            0   -9935.8476    -1191.689 
   51000    256.15507   -10040.497            0   -9934.5762   -1160.6455 
   52000    260.76489   -10041.145            0   -9933.3181   -1152.0571 
   53000    264.18545   -10041.318            0   -9932.0767   -1095.1787 
   54000    264.53685   -10040.234            0   -9930.8475   -1021.0087 
   55000    261.29631   -10037.684            0   -9929.6374     -1089.39 
   56000    264.68372   -10037.893            0   -9928.4455   -1055.0488 
   57000    267.60056   -10037.925            0   -9927.2715   -1065.1079 
   58000     267.7202   -10036.816            0   -9926.1126   -1139.8519 
   59000     264.1923   -10034.219            0   -9924.9747   -1006.6455 
   60000    270.60295   -10035.747            0   -9923.8519   -1093.6096 
   61000    274.34794   -10036.187            0   -9922.7428   -909.06609 
   62000    269.66329   -10033.159            0   -9921.6527   -892.66528 
   63000    279.41432   -10036.123            0   -9920.5845   -1170.1498 
   64000    276.64984   -10033.925            0   -9919.5297   -997.57077 
   65000    276.24819   -10032.722            0   -9918.4929   -989.17438 
   66000    273.33712   -10030.503            0   -9917.4774   -919.79603 
   67000    278.07942   -10031.465            0   -9916.4783   -1043.0483 
   68000    281.10179   -10031.732            0   -9915.4957   -1008.6438 
   69000    277.10746   -10029.122            0   -9914.5374   -985.03933 
   70000    281.24014   -10029.888            0   -9913.5939   -1214.1349 
   71000    283.03995   -10029.711            0   -9912.6731   -1053.7023 
   72000     283.6493   -10029.068            0   -9911.7782   -1124.9363 
   73000    285.71854   -10029.047            0   -9910.9018   -954.12631 
   74000    283.43363    -10027.25            0   -9910.0488   -1117.7756 
   75000    287.96463   -10028.289            0   -9909.2145   -1085.8919 
   76000    286.73526   -10026.968            0   -9908.4023   -1069.3065 
   77000    290.29279   -10027.644            0   -9907.6075   -1085.6241 
   78000    294.92039   -10028.787            0   -9906.8361   -1021.0379 
   79000    290.48698   -10026.202            0    -9906.085   -1022.3455 
   80000     296.4269   -10027.928            0   -9905.3541   -1016.2298 
   81000    288.69699    -10024.02            0    -9904.643    -1017.865 
   82000    287.05243   -10022.647            0     -9903.95   -980.89439 
   83000     290.3914   -10023.349            0   -9903.2711   -1057.0401 
   84000    289.72568   -10022.413            0   -9902.6103    -1075.031 
   85000    291.13879   -10022.353            0   -9901.9658   -1048.2703 
   86000    296.43905   -10023.922            0   -9901.3431   -922.51448 
   87000    295.23447   -10022.825            0   -9900.7448   -1020.1235 
   88000    296.03316   -10022.577            0   -9900.1662   -1033.4716 
   89000    294.52217   -10021.394            0   -9899.6082   -969.57116 
   90000    294.66957   -10020.921            0   -9899.0743   -1109.2967 
   91000    292.04225    -10019.32            0   -9898.5592   -1070.5327 
   92000    299.00088   -10021.701            0   -9898.0634   -1037.9531 
   93000    293.94832    -10019.13            0   -9897.5814   -1020.6566 
   94000    298.15272   -10020.402            0   -9897.1145   -1009.7653 
   95000    290.87854   -10016.942            0   -9896.6627   -1077.4968 
   96000    301.46368   -10020.877            0   -9896.2204   -989.60266 
   97000    296.31471   -10018.326            0    -9895.799   -1110.1725 
   98000     292.1878   -10016.225            0   -9895.4045   -953.10967 
   99000    303.83236   -10020.677            0   -9895.0411   -1010.6792 
  100000    304.93693     -10020.8            0   -9894.7078   -1143.6624 
  101000    297.93364   -10017.602            0   -9894.4052   -956.12947 
  102000    298.91566   -10017.731            0    -9894.128   -1038.1745 
  103000    302.11884   -10018.793            0   -9893.8662   -891.97604 
  104000    302.46544   -10018.688            0    -9893.618   -958.19003 
  105000     303.9694   -10019.083            0   -9893.3911   -952.90601 
  106000    302.09014   -10018.097            0   -9893.1816   -1085.5568 
  107000    298.58338   -10016.463            0   -9892.9978   -971.71896 
  108000     297.3124   -10015.775            0   -9892.8358   -957.90536 
  109000    301.31992   -10017.285            0   -9892.6881   -1194.8247 
  110000    300.49349   -10016.805            0   -9892.5501   -1019.9735 
  111000    300.22671   -10016.562            0   -9892.4176   -888.34952 
  112000    307.60987   -10019.504            0   -9892.3068   -1042.2603 
  113000    301.97128   -10017.077            0   -9892.2108   -985.49378 
  114000    300.95118   -10016.579            0   -9892.1347   -928.22578 
  115000     309.9252   -10020.231            0   -9892.0762   -1082.2233 
  116000    304.50193    -10017.95            0   -9892.0371   -1005.4139 
  117000    302.54594   -10017.125            0   -9892.0216   -1026.8923 
  118000    305.64481   -10018.419            0   -9892.0336   -1092.7435 
  119000    296.34146   -10014.611            0   -9892.0729   -1088.1077 
  120000    305.93936   -10018.641            0   -9892.1338   -1053.2313 
  121000    301.36473   -10016.825            0   -9892.2101   -901.54364 
  122000     301.7652   -10017.087            0   -9892.3064    -1079.833 
  123000    299.38644   -10016.226            0   -9892.4285   -985.47306 
  124000    301.71214   -10017.332            0   -9892.5728   -1166.8889 
  125000    302.85632   -10017.979            0   -9892.7471   -1080.9432 
  126000    302.63212   -10018.093            0   -9892.9534   -1017.1191 
  127000    299.74528   -10017.126            0     -9893.18    -985.5068 
  128000    303.95603    -10019.12            0   -9893.4335   -1137.4235 
  129000    298.70955   -10017.228            0   -9893.7107   -918.05157 
  130000    302.92342   -10019.263            0   -9894.0029   -1003.2153 
  131000    304.74357    -10020.33            0   -9894.3177   -1042.5434 
  132000    301.30453   -10019.235            0   -9894.6443   -1077.4218 
  133000     296.2088   -10017.462            0   -9894.9788   -1022.9381 
  134000    298.54179   -10018.763            0   -9895.3154   -960.41655 
  135000    300.67807   -10019.981            0   -9895.6493    -913.2852 
  136000    297.07965   -10018.821            0   -9895.9778   -1104.5391 
  137000    294.44904   -10018.045            0   -9896.2894   -1018.4771 
  138000    299.88899   -10020.587            0   -9896.5815    -1056.021 
  139000    299.87013   -10020.854            0   -9896.8572   -1064.6808 
  140000    296.00277    -10019.51            0    -9897.112    -1153.086 
  141000    293.87844   -10018.867            0   -9897.3474      -1114.7 
  142000    301.52773   -10022.246            0   -9897.5629   -1066.3549 
  143000    296.67631   -10020.432            0    -9897.755   -970.65488 
  144000    299.37046   -10021.718            0   -9897.9276   -1127.0654 
  145000    290.01031   -10017.995            0   -9898.0744   -1019.6226 
  146000    293.95637   -10019.749            0   -9898.1975    -1109.664 
  147000    292.16698   -10019.095            0   -9898.2834   -1033.9212 
  148000    300.25479   -10022.493            0   -9898.3366   -1004.5568 
  149000    296.07587   -10020.784            0   -9898.3554   -1012.6624 
  150000    300.92045    -10022.77            0   -9898.3384   -1028.2975 
  151000    299.04105   -10021.941            0   -9898.2868   -1047.8676 
  152000    298.80404   -10021.758            0   -9898.2018   -1036.2756 
  153000    296.58799   -10020.728            0   -9898.0882   -1138.6164 
  154000    295.15371   -10019.969            0   -9897.9219   -1056.8285 
  155000    302.88764   -10022.957            0   -9897.7122   -987.22881 
  156000    296.95087   -10020.236            0   -9897.4458   -1097.9716 
  157000    295.01128   -10019.109            0   -9897.1212   -1049.3261 
  158000    301.29327   -10021.329            0   -9896.7436   -932.21583 
  159000    298.50366   -10019.752            0   -9896.3199   -974.45253 
  160000    298.12336   -10019.129            0   -9895.8541    -959.8132 
  161000    301.56091   -10020.055            0    -9895.359   -1009.3257 
  162000    303.19668   -10020.233            0   -9894.8603   -910.65259 
  163000    301.09031   -10018.877            0   -9894.3753   -1062.0302 
  164000     301.7313   -10018.687            0   -9893.9197   -1103.6102 
  165000    298.61898   -10016.984            0   -9893.5037   -1068.8256 
  166000    304.69622   -10019.134            0    -9893.141   -997.56119 
  167000    308.86306   -10020.543            0   -9892.8271   -1111.4722 
  168000    302.56155   -10017.672            0   -9892.5614   -989.92391 
  169000    300.32352   -10016.532            0   -9892.3471   -1203.4408 
  170000    297.17403   -10015.062            0   -9892.1798   -908.97319 
  171000    303.42802   -10017.518            0   -9892.0499   -950.91444 
  172000    300.38328   -10016.158            0   -9891.9486   -993.95942 
  173000    306.21815     -10018.5            0   -9891.8778   -1028.3445 
  174000    303.61094   -10017.376            0   -9891.8318   -1014.7325 
  175000    303.03372   -10017.121            0   -9891.8161   -1093.7686 
  176000    301.03194   -10016.311            0   -9891.8334   -984.49952 
  177000     301.9177   -10016.723            0   -9891.8788   -1077.3235 
  178000    295.58075   -10014.168            0   -9891.9443   -1037.5934 
  179000    307.65469   -10019.252            0   -9892.0355   -1121.2987 
  180000    299.34948   -10015.927            0   -9892.1449    -1020.702 
  181000    300.30028   -10016.444            0   -9892.2693   -934.25129 
  182000    303.08027   -10017.738            0   -9892.4133   -1040.6432 
  183000    303.50916   -10018.082            0   -9892.5805   -1031.0176 
  184000    302.46504   -10017.836            0   -9892.7657   -1120.2701 
  185000    300.49318   -10017.223            0   -9892.9686    -1024.861 
  186000    298.17073   -10016.487            0   -9893.1922   -987.17296 
  187000    303.84968   -10019.079            0   -9893.4362   -1013.0562 
  188000    300.37837   -10017.912            0   -9893.7047   -969.50939 
  189000    303.53155   -10019.507            0   -9893.9961   -996.87421 
  190000    300.19962   -10018.441            0   -9894.3076   -962.07577 
  191000    300.55992   -10018.928            0   -9894.6453   -1104.3551 
  192000    297.23632   -10017.908            0   -9895.0002   -960.33484 
  193000    293.76651   -10016.844            0   -9895.3706   -1048.3397 
  194000     295.1669   -10017.812            0   -9895.7592   -1011.5199 
  195000    301.33221    -10020.76            0   -9896.1578   -986.66582 
  196000    297.21622   -10019.456            0   -9896.5561    -1177.583 
  197000    296.68205   -10019.628            0   -9896.9491   -1032.7972 
  198000     297.7958   -10020.467            0   -9897.3275   -982.41998 
  199000    296.82956   -10020.417            0   -9897.6767   -854.33521 
  200000    299.49801   -10021.842            0    -9897.999   -867.34255 
  201000    291.43794   -10018.788            0   -9898.2778   -1121.3437 
  202000    293.45049   -10019.867            0    -9898.524   -944.51136 
  203000    295.86442   -10021.068            0   -9898.7266   -965.33579 
  204000    295.20483   -10020.958            0   -9898.8895   -1042.8193 
  205000    291.60139   -10019.583            0   -9899.0052   -1003.4642 
  206000      289.129   -10018.636            0   -9899.0801   -1014.8646 
  207000     296.6345   -10021.778            0   -9899.1188   -1056.8123 
  208000    305.91528    -10025.62            0   -9899.1233   -1130.9495 
  209000    290.73109   -10019.299            0    -9899.081   -877.79087 
  210000    299.27751   -10022.752            0   -9898.9993    -971.7085 
  211000    298.99026   -10022.511            0   -9898.8777   -1190.7835 
  212000    296.97867   -10021.516            0   -9898.7146   -1176.0359 
  213000    292.66637   -10019.521            0    -9898.503    -1088.871 
  214000    304.19911   -10024.016            0   -9898.2283   -1045.6906 
  215000    294.67594   -10019.739            0   -9897.8896    -952.7647 
  216000    296.56446   -10020.118            0   -9897.4872   -1039.6127 
  217000    301.64602   -10021.755            0   -9897.0234   -1081.9197 
  218000    292.51532    -10017.46            0   -9896.5037   -985.16223 
  219000    297.70231   -10019.049            0   -9895.9479   -1036.7218 
  220000    299.48899   -10019.225            0   -9895.3857   -951.75687 
  221000    295.07644   -10016.856            0   -9894.8407   -1101.8824 
  222000    303.48957   -10019.836            0   -9894.3422   -986.31844 
  223000     302.6992   -10019.064            0   -9893.8973   -1005.9564 
  224000    301.67301    -10018.26            0   -9893.5177   -1086.8236 
  225000    300.26038   -10017.361            0    -9893.202   -902.65929 
  226000    307.86094   -10020.254            0   -9892.9524   -991.77207 
  227000    301.74407   -10017.522            0   -9892.7496   -1073.4926 
  228000    301.83871   -10017.401            0   -9892.5896    -980.9624 
  229000    301.52503    -10017.15            0   -9892.4683   -997.51586 
  230000    296.33869   -10014.925            0   -9892.3876   -1028.6898 
  231000    304.46616   -10018.231            0   -9892.3332   -1039.3507 
  232000    303.32766   -10017.736            0   -9892.3093   -1040.7941 
  233000    304.46239   -10018.208            0   -9892.3122   -948.32632 
  234000    308.56782   -10019.929            0   -9892.3349   -937.32102 
  235000    310.67569   -10020.847            0   -9892.3819   -1028.8779 
  236000     298.2089   -10015.751            0   -9892.4408   -1043.5362 
  237000    300.09288   -10016.607            0   -9892.5174    -998.3294 
  238000    302.52349   -10017.703            0   -9892.6086    -979.5833 
  239000    307.26116   -10019.773            0   -9892.7198   -931.72279 
  240000    300.90005    -10017.26            0   -9892.8367   -1208.5817 
  241000    300.47031   -10017.208            0   -9892.9626    -1061.908 
  242000    298.19517   -10016.399            0    -9893.094   -1034.6334 
  243000    304.32241   -10019.075            0    -9893.237   -1063.6625 
  244000    304.63159   -10019.354            0   -9893.3874   -1004.1313 
  245000    299.62347    -10017.45            0   -9893.5548   -931.52231 
  246000    303.80568   -10019.359            0   -9893.7342   -891.40383 
  247000    305.88485   -10020.415            0    -9893.931   -1021.1667 
  248000    297.14889   -10017.015            0   -9894.1427   -845.88963 
  249000    297.99757   -10017.585            0   -9894.3619    -1024.011 
  250000    302.32375   -10019.611            0   -9894.5994   -1041.5174 
  251000    297.59399   -10017.915            0   -9894.8584   -1113.3688 
  252000    298.12812   -10018.421            0   -9895.1437   -974.97227 
  253000    298.66459   -10018.952            0   -9895.4533   -1062.6453 
  254000    301.85561   -10020.597            0   -9895.7788   -1030.4415 
  255000    294.61823   -10017.939            0    -9896.113   -957.16098 
  256000    298.96026   -10020.079            0   -9896.4578   -981.87879 
  257000    297.87405   -10019.976            0   -9896.8039   -1055.6481 
  258000    294.06105   -10018.734            0   -9897.1388   -1061.9459 
  259000    299.09355   -10021.142            0   -9897.4654    -1046.329 
  260000    295.52016   -10019.972            0   -9897.7736   -1035.5414 
  261000    298.25044   -10021.395            0   -9898.0671    -1080.154 
  262000    294.48656   -10020.113            0   -9898.3422   -1088.6791 
  263000     291.7625    -10019.24            0   -9898.5957   -931.72455 
  264000    290.84497   -10019.093            0   -9898.8273   -1158.5698 
  265000    299.17145   -10022.734            0   -9899.0259   -1040.3192 
  266000    295.59657   -10021.424            0   -9899.1935   -1106.8604 
  267000     292.0303   -10020.086            0   -9899.3302   -942.33077 
  268000     298.2708   -10022.771            0   -9899.4347   -955.72607 
  269000    293.51382   -10020.872            0   -9899.5026    -1060.266 
  270000    299.56941   -10023.405            0   -9899.5324   -1016.4186 
  271000     291.8444     -10020.2            0   -9899.5219    -1195.223 
  272000     292.5481   -10020.437            0   -9899.4673   -1054.9924 
  273000    292.92983   -10020.496            0   -9899.3682   -1060.6287 
  274000     291.5823   -10019.793            0   -9899.2229   -1014.9263 
  275000    290.66235    -10019.21            0   -9899.0203   -1073.4344 
  276000    302.04165   -10023.648            0   -9898.7531   -1046.7376 
  277000    296.37482   -10020.979            0   -9898.4268   -1024.3889 
  278000    294.17257   -10019.682            0   -9898.0409   -993.69173 
  279000    291.78647   -10018.257            0   -9897.6024   -1082.6944 
  280000    294.81982   -10019.033            0   -9897.1242   -998.05148 
  281000    291.94222   -10017.344            0   -9896.6246   -1018.0253 
  282000    301.62974   -10020.849            0   -9896.1237    -1036.943 
  283000    299.10974   -10019.322            0   -9895.6393   -1026.6536 
  284000    298.27853   -10018.527            0   -9895.1882   -1118.9715 
  285000    301.41662   -10019.419            0   -9894.7825   -922.90379 
  286000    296.66288   -10017.094            0   -9894.4229   -890.40843 
  287000    298.75337   -10017.638            0   -9894.1029   -970.93401 
  288000    297.71484   -10016.933            0   -9893.8267   -1079.9049 
  289000    298.21767   -10016.906            0   -9893.5925   -1057.1517 
  290000    295.36953   -10015.533            0   -9893.3968   -1023.8022 
  291000    302.61507   -10018.363            0   -9893.2311   -938.17633 
  292000    294.71474   -10014.955            0   -9893.0893   -1021.8608 
  293000    306.59266   -10019.748            0   -9892.9708   -999.43378 
  294000    301.88518     -10017.7            0   -9892.8697   -1075.6554 
  295000    303.33095   -10018.219            0   -9892.7904   -963.87929 
  296000    297.03715   -10015.552            0   -9892.7266   -1006.5298 
  297000    302.33836   -10017.701            0   -9892.6832   -1177.2923 
  298000    300.60777   -10016.958            0   -9892.6553    -1051.937 
  299000    299.90269   -10016.651            0   -9892.6408    -960.7095 
  300000    301.70199   -10017.394            0    -9892.639   -1042.2797 
  301000    302.75105   -10017.835            0   -9892.6465   -1050.1869 
  302000    308.16147   -10020.093            0    -9892.667   -952.87332 
  303000    304.08228    -10018.43            0   -9892.6914    -1071.295 
  304000    296.70746   -10015.415            0   -9892.7255   -959.14433 
  305000     300.7991   -10017.151            0     -9892.77   -938.79064 
  306000    295.67169   -10015.091            0   -9892.8295   -988.05042 
  307000    304.62939   -10018.876            0   -9892.9105   -1117.2554 
  308000    302.45297   -10018.071            0   -9893.0053   -1023.0623 
  309000    308.03755   -10020.492            0   -9893.1175   -943.36775 
  310000    299.21801   -10016.977            0   -9893.2495   -1049.5914 
  311000    298.39145    -10016.79            0    -9893.404   -928.45397 
  312000    304.47521   -10019.501            0   -9893.5993   -1132.3447 
  313000    293.73244   -10015.299            0   -9893.8401   -1074.4814 
  314000     298.8012   -10017.678            0   -9894.1226   -950.82949 
  315000    300.51586   -10018.716            0   -9894.4517   -1105.4351 
  316000    298.01194   -10018.057            0   -9894.8282   -985.01057 
  317000    304.23755   -10021.041            0   -9895.2378   -990.53734 
  318000    302.96725   -10020.953            0   -9895.6755   -1048.6625 
  319000    297.46694   -10019.137            0   -9896.1337   -1080.1578 
  320000      304.159   -10022.356            0   -9896.5849   -1143.0274 
  321000    300.80122   -10021.405            0   -9897.0225   -994.92263 
  322000      294.744   -10019.313            0   -9897.4355    -943.2526 
  323000    306.44572   -10024.535            0   -9897.8187   -1052.0278 
  324000    293.14882   -10019.376            0   -9898.1575   -1076.8699 
  325000    292.07494   -10019.219            0   -9898.4453   -1109.8682 
  326000    292.50597   -10019.634            0   -9898.6817   -1027.0272 
  327000    300.02314   -10022.929            0   -9898.8688   -962.21129 
  328000    291.29253   -10019.456            0   -9899.0057   -995.50109 
  329000    295.90583   -10021.454            0    -9899.096   -1081.0121 
  330000    293.75488   -10020.618            0   -9899.1496   -1103.2317 
  331000    293.91734   -10020.704            0   -9899.1681   -976.93919 
  332000    293.66302   -10020.584            0   -9899.1533   -969.20915 
  333000    286.68807   -10017.651            0   -9899.1045   -912.31194 
  334000     288.4785   -10018.316            0   -9899.0296    -1091.463 
  335000    298.65996   -10022.415            0   -9898.9182   -1069.3756 
  336000    294.70553   -10020.629            0   -9898.7669    -976.4106 
  337000    292.04521   -10019.346            0   -9898.5848   -945.29348 
  338000    300.30478   -10022.543            0   -9898.3663   -1111.3164 
  339000    296.67784   -10020.784            0   -9898.1072   -1071.8826 
  340000    298.04497   -10021.044            0   -9897.8018   -1022.6675 
  341000    304.32186   -10023.297            0   -9897.4585   -1025.7011 
  342000    295.83904   -10019.411            0   -9897.0801    -1078.462 
  343000    295.55539   -10018.882            0   -9896.6692   -1040.8787 
  344000    298.56933    -10019.68            0   -9896.2206   -905.67967 
  345000    301.94793   -10020.607            0   -9895.7502   -1012.5902 
  346000    300.29726   -10019.449            0   -9895.2747   -1021.0391 
  347000    298.61158   -10018.288            0   -9894.8111   -883.80438 
  348000    296.10341   -10016.819            0   -9894.3794   -929.09456 
  349000    295.43787   -10016.149            0   -9893.9844   -1088.8066 
  350000    298.06211   -10016.881            0    -9893.631   -995.16682 
  351000    299.05985   -10016.991            0   -9893.3285   -1054.2747 
  352000     298.0441   -10016.316            0   -9893.0738    -1150.571 
  353000    303.50059   -10018.366            0   -9892.8671   -977.72663 
  354000     296.3101   -10015.226            0   -9892.7006    -951.6846 
  355000    301.04023   -10017.056            0   -9892.5747    -1020.179 
  356000    303.88745   -10018.141            0   -9892.4824   -986.46677 
  357000    300.10415   -10016.514            0   -9892.4197   -962.64404 
  358000    301.72488   -10017.147            0    -9892.383    -1013.616 
  359000    302.91841   -10017.632            0   -9892.3741   -948.43136 
  360000    299.42058   -10016.198            0   -9892.3864   -1073.6469 
  361000    303.27186   -10017.813            0    -9892.409   -1020.6359 
  362000    304.43701   -10018.327            0   -9892.4409   -1037.3834 
  363000    293.30098   -10013.764            0    -9892.483   -943.05217 
  364000    296.66607   -10015.208            0    -9892.536   -1140.2505 
  365000     302.5013    -10017.67            0   -9892.5848   -996.51149 
  366000    298.46041   -10016.052            0   -9892.6375   -1068.5808 
  367000    303.60128    -10018.24            0   -9892.6998   -1012.7875 
  368000    300.98544   -10017.225            0   -9892.7661   -897.54439 
  369000    308.83379    -10020.54            0   -9892.8362   -992.42891 
  370000    304.18909     -10018.7            0   -9892.9164   -1026.9405 
  371000    299.11331   -10016.682            0   -9892.9972   -999.04714 
  372000    302.08355   -10017.998            0   -9893.0856   -1060.3735 
  373000    302.63246    -10018.32            0   -9893.1806   -1018.2096 
  374000    303.19743   -10018.662            0   -9893.2886   -998.14676 
  375000    301.04463   -10017.879            0   -9893.3958   -1081.4938 
  376000    302.14021   -10018.436            0      -9893.5   -999.02288 
  377000    299.74457   -10017.546            0   -9893.6007    -1022.144 
  378000    296.22975   -10016.196            0   -9893.7045   -1066.9546 
  379000    294.99334   -10015.791            0   -9893.8099   -1128.9879 
  380000    301.10152   -10018.425            0    -9893.919   -959.68359 
  381000    302.19608   -10019.006            0   -9894.0469   -1077.4701 
  382000    299.44272   -10018.011            0   -9894.1904   -984.66197 
  383000    302.19762   -10019.315            0   -9894.3554   -993.75127 
  384000    304.45901   -10020.439            0    -9894.544   -883.55456 
  385000    301.95093   -10019.619            0   -9894.7612   -1082.0906 
  386000    301.52955   -10019.689            0   -9895.0059   -990.72535 
  387000    300.35116    -10019.48            0   -9895.2836   -1051.3447 
  388000    303.78092   -10021.216            0   -9895.6011   -968.69759 
  389000    305.14249    -10022.13            0   -9895.9526   -1076.0379 
  390000    301.93133   -10021.182            0   -9896.3327   -1013.8539 
  391000    295.53267   -10018.928            0   -9896.7238   -991.07523 
  392000    299.87068   -10021.128            0     -9897.13   -968.04663 
  393000    296.31578   -10020.059            0    -9897.532   -1069.0291 
  394000    291.34817   -10018.392            0   -9897.9188   -1010.2504 
  395000    297.28275   -10021.207            0   -9898.2792   -1030.2604 
  396000    298.74333   -10022.134            0   -9898.6028   -1086.7955 
  397000    294.42321   -10020.618            0   -9898.8735   -1068.5365 
  398000    299.06969    -10022.76            0   -9899.0938    -984.3078 
  399000    295.79796   -10021.582            0   -9899.2681   -983.20232 
  400000      294.946   -10021.345            0   -9899.3837   -954.33467 
  401000     297.5318    -10022.49            0   -9899.4597   -943.01247 
  402000    296.87013   -10022.253            0   -9899.4959   -1072.6011 
  403000    295.20567   -10021.562            0   -9899.4931   -1069.9463 
  404000    298.26519   -10022.778            0   -9899.4442   -855.60506 
  405000    296.93795   -10022.138            0    -9899.353   -944.84987 
  406000    297.54521   -10022.249            0    -9899.213   -1169.7992 
  407000    292.88772   -10020.122            0   -9899.0123   -1012.0892 
  408000    295.94014   -10021.122            0   -9898.7496   -993.91434 
  409000    300.87047   -10022.841            0   -9898.4301   -1076.3314 
  410000    297.33441   -10020.999            0   -9898.0501   -839.50224 
  411000    295.07477    -10019.63            0   -9897.6152   -1018.0197 
  412000    290.80643   -10017.385            0   -9897.1356   -941.45075 
  413000    301.42446   -10021.264            0   -9896.6238    -950.0175 
  414000    292.13174   -10016.898            0   -9896.1005    -1081.038 
  415000     299.1853   -10019.305            0   -9895.5905   -1105.3688 
  416000    302.59736   -10020.242            0   -9895.1173   -967.27966 
  417000    301.29191    -10019.28            0   -9894.6949   -1012.9924 
  418000    303.96729   -10020.021            0   -9894.3296   -991.19567 
  419000    302.26312   -10019.002            0   -9894.0147   -991.39381 
  420000    303.17425   -10019.123            0   -9893.7599   -1034.1842 
  421000    300.08932   -10017.634            0   -9893.5462   -952.85137 
  422000    298.93118   -10016.978            0   -9893.3688   -1130.2356 
  423000    298.24875   -10016.556            0   -9893.2291   -1021.1129 
  424000     302.0024   -10017.993            0   -9893.1142   -951.53908 
  425000    303.74714   -10018.622            0   -9893.0218   -978.52353 
  426000    300.91754   -10017.387            0   -9892.9566   -1004.4688 
  427000    306.21685   -10019.537            0   -9892.9153   -872.21205 
  428000    298.22362    -10016.21            0   -9892.8935   -931.81662 
  429000    299.37198   -10016.683            0    -9892.892     -1091.83 
  430000    306.75045   -10019.744            0   -9892.9013   -1003.9339 
  431000     300.3143   -10017.098            0   -9892.9172   -1076.6683 
  432000    300.06923   -10017.025            0   -9892.9456   -1165.3991 
  433000    304.30011   -10018.815            0   -9892.9863   -976.10368 
  434000    302.07598   -10017.953            0   -9893.0436   -1098.9723 
  435000    302.40236   -10018.157            0   -9893.1122   -1062.7181 
  436000    302.44257   -10018.253            0   -9893.1917   -1037.6355 
  437000    304.86822   -10019.344            0   -9893.2797   -964.59847 
  438000    297.90707    -10016.56            0   -9893.3744   -1035.2701 
  439000    293.27619   -10014.742            0   -9893.4715   -1126.9643 
  440000    304.04953   -10019.302            0   -9893.5768   -1020.7037 
  441000    299.94301   -10017.722            0   -9893.6949   -990.36212 
  442000    303.07366   -10019.145            0   -9893.8231   -1032.9693 
  443000    306.88743   -10020.865            0   -9893.9665   -975.39075 
  444000    307.15106   -10021.142            0   -9894.1338   -1033.9069 
  445000    299.72631   -10018.246            0   -9894.3078   -968.80178 
  446000     300.3372   -10018.675            0   -9894.4841   -973.44752 
  447000    300.58325   -10018.967            0   -9894.6751   -1098.2145 
  448000    295.50906   -10017.079            0   -9894.8853    -1069.361 
  449000    297.41795   -10018.097            0   -9895.1141   -1083.7864 
  450000     298.3706   -10018.738            0   -9895.3612    -961.4655 
  451000    296.28375   -10018.146            0    -9895.632   -1020.6132 
  452000    302.86029   -10021.156            0   -9895.9227   -1107.3823 
  453000    303.23825   -10021.621            0   -9896.2308   -968.76144 
  454000    296.62763   -10019.218            0   -9896.5618   -1131.7799 
  455000    299.27691   -10020.656            0   -9896.9039   -1017.8113 
  456000     292.4248   -10018.166            0   -9897.2473   -1122.8154 
  457000    302.29924   -10022.581            0   -9897.5791   -1027.3469 
  458000    299.64875   -10021.796            0   -9897.8907   -1033.5167 
  459000    292.40909   -10019.082            0   -9898.1696    -1026.343 
  460000    297.78348   -10021.557            0   -9898.4222   -1093.6237 
  461000     296.7533   -10021.358            0   -9898.6491   -1169.1817 
  462000    300.95956   -10023.294            0    -9898.846   -949.04788 
  463000    297.75474   -10022.137            0    -9899.014   -943.04677 
  464000    292.14668   -10019.951            0   -9899.1469   -1082.9712 
  465000    291.24909   -10019.683            0    -9899.251    -1142.051 
  466000    299.21945   -10023.054            0   -9899.3254   -978.96825 
  467000    294.07913   -10020.966            0    -9899.363   -1126.9149 
  468000    298.14301    -10022.65            0   -9899.3664   -1056.7003 
  469000    294.93436   -10021.281            0   -9899.3245   -967.82246 
  470000    291.16051   -10019.643            0   -9899.2474   -1062.5826 
  471000    290.82107   -10019.381            0   -9899.1258   -1091.3375 
  472000    295.22176   -10021.019            0    -9898.944   -941.30494 
  473000    295.05706   -10020.712            0    -9898.705   -1003.6283 
  474000    289.07434   -10017.943            0   -9898.4096    -1012.607 
  475000    300.59379   -10022.352            0   -9898.0552   -1170.8845 
  476000    298.13134   -10020.917            0   -9897.6382   -1137.3297 
  477000    294.13199   -10018.802            0   -9897.1779   -977.85623 
  478000    297.45834   -10019.683            0   -9896.6827   -1020.6719 
  479000    298.28743   -10019.517            0   -9896.1744   -960.32055 
  480000    303.15142    -10021.03            0   -9895.6764   -1105.2821 
  481000    294.83251   -10017.113            0   -9895.1988   -922.98718 
  482000     303.1972   -10020.134            0    -9894.761   -1035.0362 
  483000    301.10008    -10018.87            0   -9894.3639   -992.22766 
  484000    296.94085   -10016.803            0   -9894.0173   -1028.1322 
  485000     295.6181   -10015.954            0    -9893.715   -1191.5285 
  486000    298.72579   -10016.985            0   -9893.4605   -965.41368 
  487000    302.34307    -10018.27            0   -9893.2498    -924.9375 
  488000    295.28921   -10015.176            0   -9893.0729   -955.20507 
  489000    304.73932   -10018.942            0   -9892.9309    -1135.974 
  490000    300.77191   -10017.186            0   -9892.8155   -981.68088 
  491000    302.91095   -10017.983            0   -9892.7287   -1038.3625 
  492000    303.80127   -10018.297            0   -9892.6739    -1027.117 
  493000    300.40191   -10016.857            0   -9892.6398   -973.76622 
  494000    304.33988   -10018.472            0   -9892.6267   -976.00018 
  495000    296.68964   -10015.317            0   -9892.6345   -1005.4961 
  496000    304.14824   -10018.423            0   -9892.6563   -931.45328 
  497000    297.67957   -10015.782            0   -9892.6909   -979.30994 
  498000    298.99685   -10016.368            0   -9892.7317   -1039.8275 
  499000    302.40091   -10017.827            0   -9892.7832    -1047.813 
  500000    303.12105    -10018.17            0   -9892.8283   -1138.0334 
Loop time of 1422.73 on 2 procs for 500000 steps with 3200 atoms

Performance: 30.364 ns/day, 0.790 hours/ns, 351.436 timesteps/s
100.0% CPU use with 2 MPI tasks x 1 OpenMP threads

MPI task timing breakdown:
Section |  min time  |  avg time  |  max time  |%varavg| %total
---------------------------------------------------------------
Pair    | 1403.3     | 1403.8     | 1404.2     |   1.2 | 98.67
Neigh   | 2.0824     | 2.083      | 2.0835     |   0.0 |  0.15
Comm    | 4.1906     | 4.6938     | 5.197      |  23.2 |  0.33
Output  | 0.0085969  | 0.010029   | 0.011461   |   1.4 |  0.00
Modify  | 9.4138     | 9.5083     | 9.6028     |   3.1 |  0.67
Other   |            | 2.675      |            |       |  0.19

Nlocal:        1600.00 ave        1600 max        1600 min
Histogram: 2 0 0 0 0 0 0 0 0 0
Nghost:        555.000 ave         557 max         553 min
Histogram: 1 0 0 0 0 0 0 0 0 1
Neighs:        0.00000 ave           0 max           0 min
Histogram: 2 0 0 0 0 0 0 0 0 0
FullNghs:      19199.0 ave       19200 max       19198 min
Histogram: 1 0 0 0 0 0 0 0 0 1

Total # of neighbors = 38398
Ave neighs/atom = 11.999375
Neighbor list builds = 2489
Dangerous builds = 0

velocity	all scale $t
velocity	all scale 300

unfix		1

# 2nd equilibration run

compute		ke all ke/atom
variable	temp atom c_ke/(1.5*8.617e-5)

fix		1 all nve

compute   layers all chunk/atom bin/1d x lower 0.05 units reduced
fix		2 all ave/chunk 10 100 1000 layers v_temp file profile1.mp

fix		3 all thermal/conductivity 200 x 30

variable        tdiff equal f_2[11][3]-f_2[1][3]
thermo_style	custom step temp epair etotal lx ly lz f_3 v_tdiff

thermo		1000
run		2000000
Per MPI rank memory allocation (min/avg/max) = 3.476 | 3.476 | 3.476 Mbytes
Step Temp E_pair TotEng Lx Ly Lz f_3 v_tdiff 
  500000          300    -10018.17   -9894.1189    638.17604    34.542289     20.00004            0            0 
  501000    298.60566   -10017.593   -9894.1185    638.17604    34.542289     20.00004   0.82348919    15.093536 
  502000    299.22038   -10017.848    -9894.119    638.17604    34.542289     20.00004    1.5600878    30.448262 
  503000    298.68034   -10017.625   -9894.1193    638.17604    34.542289     20.00004    2.2788018    35.562629 
  504000    303.75738   -10019.724   -9894.1198    638.17604    34.542289     20.00004     3.015881    33.705708 
  505000    297.45042   -10017.116    -9894.119    638.17604    34.542289     20.00004    3.8498802    54.153107 
  506000    297.07771   -10016.962    -9894.119    638.17604    34.542289     20.00004      4.55154    78.031187 
  507000    291.97582   -10014.851   -9894.1185    638.17604    34.542289     20.00004    5.2933286    80.980491 
  508000    300.48531   -10018.372   -9894.1199    638.17604    34.542289     20.00004    5.9289304    85.238057 
  509000    297.35165   -10017.074   -9894.1186    638.17604    34.542289     20.00004    6.6593431    98.219336 
  510000    295.85738   -10016.457   -9894.1189    638.17604    34.542289     20.00004    7.4406553    115.22755 
  511000    304.00528   -10019.827   -9894.1199    638.17604    34.542289     20.00004    8.1757497    113.91835 
  512000    300.78061   -10018.493   -9894.1191    638.17604    34.542289     20.00004    8.8113878     144.3341 
  513000    295.88064   -10016.466   -9894.1182    638.17604    34.542289     20.00004    9.3307443    174.36341 
  514000    304.05146   -10019.847   -9894.1204    638.17604    34.542289     20.00004    9.8503975    151.71882 
  515000    300.01071   -10018.175   -9894.1193    638.17604    34.542289     20.00004    10.505289     147.1579 
  516000    295.53646   -10016.324   -9894.1192    638.17604    34.542289     20.00004    11.180506    142.22264 
  517000    297.82274    -10017.27   -9894.1196    638.17604    34.542289     20.00004     11.79904     152.6024 
  518000     302.2807   -10019.114   -9894.1199    638.17604    34.542289     20.00004    12.489302    151.30089 
  519000    296.99329   -10016.927    -9894.119    638.17604    34.542289     20.00004    13.124609    142.48131 
  520000    306.65993   -10020.925   -9894.1198    638.17604    34.542289     20.00004    13.772127    159.25834 
  521000    300.88543   -10018.537     -9894.12    638.17604    34.542289     20.00004    14.319186    166.90187 
  522000     302.9871   -10019.406   -9894.1199    638.17604    34.542289     20.00004    15.004475    150.83035 
  523000    297.05829   -10016.954   -9894.1195    638.17604    34.542289     20.00004    15.619664    138.56313 
  524000    302.75794   -10019.311   -9894.1197    638.17604    34.542289     20.00004    16.172335    150.19755 
  525000    294.81109   -10016.023   -9894.1177    638.17604    34.542289     20.00004    16.850056    137.35106 
  526000    298.73465   -10017.647   -9894.1192    638.17604    34.542289     20.00004    17.490309    140.68153 
  527000    299.80389   -10018.089    -9894.119    638.17604    34.542289     20.00004    18.162201    141.25262 
  528000    296.45942   -10016.705   -9894.1185    638.17604    34.542289     20.00004    18.759941    133.80263 
  529000     307.1523   -10021.129    -9894.121    638.17604    34.542289     20.00004    19.379519    126.60464 
  530000    296.69234   -10016.801    -9894.118    638.17604    34.542289     20.00004    20.106799    126.58458 
  531000    299.83084     -10018.1    -9894.119    638.17604    34.542289     20.00004    20.777637    142.26517 
  532000    299.71387   -10018.053   -9894.1199    638.17604    34.542289     20.00004    21.351987    137.27819 
  533000     302.8336   -10019.343   -9894.1199    638.17604    34.542289     20.00004    21.947243    141.91966 
  534000    292.31494   -10014.991   -9894.1181    638.17604    34.542289     20.00004    22.563371    161.81092 
  535000    305.69889   -10020.527   -9894.1194    638.17604    34.542289     20.00004    23.169213    145.52319 
  536000    298.43165   -10017.522   -9894.1192    638.17604    34.542289     20.00004    23.745263    134.38354 
  537000    305.01142   -10020.244   -9894.1206    638.17604    34.542289     20.00004    24.305742    129.44173 
  538000    292.72902   -10015.163   -9894.1184    638.17604    34.542289     20.00004    24.963341    128.09218 
  539000    305.96813   -10020.639   -9894.1199    638.17604    34.542289     20.00004    25.741392     137.3775 
  540000    295.80717   -10016.436    -9894.119    638.17604    34.542289     20.00004    26.397157    154.40862 
  541000    299.95866   -10018.153   -9894.1186    638.17604    34.542289     20.00004    26.993728    139.93193 
  542000    300.90452   -10018.545   -9894.1197    638.17604    34.542289     20.00004     27.68092    145.63749 
  543000    294.04148   -10015.705   -9894.1182    638.17604    34.542289     20.00004    28.223028    141.45387 
  544000    301.26215   -10018.693   -9894.1201    638.17604    34.542289     20.00004    28.852859    133.13723 
  545000    298.32339   -10017.477   -9894.1191    638.17604    34.542289     20.00004    29.494881     128.6451 
  546000    298.94978   -10017.736   -9894.1192    638.17604    34.542289     20.00004    30.149894    137.30602 
  547000    302.16266   -10019.066   -9894.1205    638.17604    34.542289     20.00004    30.746299     140.0723 
  548000    292.15376   -10014.924   -9894.1177    638.17604    34.542289     20.00004    31.385861    140.79026 
  549000    295.44895   -10016.287   -9894.1183    638.17604    34.542289     20.00004    32.033635    154.16066 
  550000    298.22397   -10017.436   -9894.1193    638.17604    34.542289     20.00004    32.666647    147.63496 
  551000    300.35128   -10018.316   -9894.1199    638.17604    34.542289     20.00004    33.416212    141.61718 
  552000    301.08044   -10018.618   -9894.1202    638.17604    34.542289     20.00004    34.086269    159.41827 
  553000    297.59559   -10017.175   -9894.1187    638.17604    34.542289     20.00004    34.625798    150.73353 
  554000    303.63937   -10019.676   -9894.1203    638.17604    34.542289     20.00004    35.181758    149.10307 
  555000    299.30798   -10017.884   -9894.1193    638.17604    34.542289     20.00004    35.806462    148.44508 
  556000    300.56517   -10018.404    -9894.119    638.17604    34.542289     20.00004    36.403202     167.4363 
  557000    299.09111   -10017.795   -9894.1197    638.17604    34.542289     20.00004    36.920313     169.2085 
  558000    292.63242   -10015.124   -9894.1198    638.17604    34.542289     20.00004    37.720664    170.07468 
  559000    300.68372   -10018.453   -9894.1198    638.17604    34.542289     20.00004    38.229492    166.65606 
  560000    300.03919   -10018.186   -9894.1191    638.17604    34.542289     20.00004    38.795366    174.88782 
  561000     303.1096   -10019.457   -9894.1201    638.17604    34.542289     20.00004     39.28278    177.11168 
  562000    293.39574   -10015.438   -9894.1183    638.17604    34.542289     20.00004    39.901716    155.27204 
  563000    294.95069   -10016.081   -9894.1182    638.17604    34.542289     20.00004     40.55415    159.99711 
  564000    298.60671   -10017.593   -9894.1186    638.17604    34.542289     20.00004    41.075704     166.7939 
  565000      298.562   -10017.576   -9894.1195    638.17604    34.542289     20.00004    41.659019     170.8992 
  566000    299.98977   -10018.167   -9894.1198    638.17604    34.542289     20.00004    42.290569    155.29888 
  567000    291.84837   -10014.798   -9894.1181    638.17604    34.542289     20.00004    42.924574     156.0775 
  568000    294.19869   -10015.771   -9894.1192    638.17604    34.542289     20.00004    43.542195    155.04149 
  569000    293.32151   -10015.408   -9894.1186    638.17604    34.542289     20.00004    44.089612    165.62094 
  570000    303.19862   -10019.493   -9894.1198    638.17604    34.542289     20.00004    44.736805    163.22117 
  571000    302.78072   -10019.321   -9894.1199    638.17604    34.542289     20.00004    45.335856    199.68433 
  572000    298.37394   -10017.498    -9894.119    638.17604    34.542289     20.00004    45.967037    210.20535 
  573000    297.94158   -10017.318   -9894.1185    638.17604    34.542289     20.00004     46.48182    186.15069 
  574000    295.12697   -10016.155   -9894.1189    638.17604    34.542289     20.00004    47.164752    198.01073 
  575000    300.77894   -10018.492   -9894.1193    638.17604    34.542289     20.00004    47.713331    192.40275 
  576000    302.80751   -10019.332   -9894.1197    638.17604    34.542289     20.00004     48.29806    169.69475 
  577000    294.61699   -10015.943   -9894.1183    638.17604    34.542289     20.00004    48.849653    169.18856 
  578000    295.83631   -10016.448   -9894.1192    638.17604    34.542289     20.00004    49.381011    173.21365 
  579000    294.16307   -10015.756   -9894.1191    638.17604    34.542289     20.00004    49.840955    183.08298 
  580000    292.04002   -10014.878   -9894.1188    638.17604    34.542289     20.00004     50.47618    169.69181 
  581000    296.20933   -10016.603   -9894.1191    638.17604    34.542289     20.00004    51.011339    172.40174 
  582000    299.72546   -10018.057   -9894.1197    638.17604    34.542289     20.00004    51.563739    143.16052 
  583000    298.82185   -10017.683    -9894.119    638.17604    34.542289     20.00004    52.142111     135.8179 
  584000    291.36577     -10014.6   -9894.1191    638.17604    34.542289     20.00004    52.702252     155.6922 
  585000    300.15014   -10018.233   -9894.1203    638.17604    34.542289     20.00004    53.296764    177.00988 
  586000    303.64494   -10019.679   -9894.1207    638.17604    34.542289     20.00004     53.83969    165.76167 
  587000    295.64871   -10016.371   -9894.1194    638.17604    34.542289     20.00004    54.347126    152.26242 
  588000    301.45508   -10018.772   -9894.1198    638.17604    34.542289     20.00004    54.897541    158.81953 
  589000    298.73511   -10017.647   -9894.1193    638.17604    34.542289     20.00004    55.494229    159.12747 
  590000    299.89577   -10018.128   -9894.1202    638.17604    34.542289     20.00004    56.067756    173.74413 
  591000    294.99205   -10016.098   -9894.1179    638.17604    34.542289     20.00004     56.68371    186.84786 
  592000    298.95996   -10017.741   -9894.1201    638.17604    34.542289     20.00004    57.397014    159.30873 
  593000    297.06855   -10016.958    -9894.119    638.17604    34.542289     20.00004    57.977494    164.80122 
  594000    293.60657   -10015.526    -9894.119    638.17604    34.542289     20.00004    58.541262    163.38391 
  595000    299.42875   -10017.934   -9894.1196    638.17604    34.542289     20.00004    59.039853    172.73408 
  596000     296.6233   -10016.774    -9894.119    638.17604    34.542289     20.00004    59.587566    162.25647 
  597000    297.22377   -10017.022   -9894.1186    638.17604    34.542289     20.00004    60.108448    182.63319 
  598000    294.23972   -10015.788   -9894.1185    638.17604    34.542289     20.00004    60.672099    180.52097 
  599000    293.51052   -10015.487   -9894.1193    638.17604    34.542289     20.00004    61.177262    195.63068 
  600000    295.25053   -10016.205   -9894.1182    638.17604    34.542289     20.00004    61.638018    196.40058 
  601000    302.06739   -10019.026   -9894.1206    638.17604    34.542289     20.00004    62.167514    198.31728 
  602000     294.0954   -10015.729   -9894.1197    638.17604    34.542289     20.00004    62.748126    185.38594 
  603000    300.86866    -10018.53   -9894.1202    638.17604    34.542289     20.00004    63.427118    198.68171 
  604000    296.17562   -10016.588   -9894.1184    638.17604    34.542289     20.00004    64.002661    209.00576 
  605000    298.22318   -10017.436   -9894.1198    638.17604    34.542289     20.00004    64.578264    179.47516 
  606000    300.35571   -10018.318   -9894.1201    638.17604    34.542289     20.00004     65.13888    160.65616 
  607000    298.86421     -10017.7   -9894.1192    638.17604    34.542289     20.00004    65.748635    178.82325 
  608000    302.23317   -10019.094     -9894.12    638.17604    34.542289     20.00004    66.323085      202.622 
  609000    298.14375   -10017.403   -9894.1197    638.17604    34.542289     20.00004    66.906981    187.82597 
  610000    296.99083   -10016.926   -9894.1192    638.17604    34.542289     20.00004    67.602745    175.13448 
  611000    296.26896   -10016.626   -9894.1183    638.17604    34.542289     20.00004    68.251122    163.60395 
  612000    297.36844   -10017.083   -9894.1199    638.17604    34.542289     20.00004    68.868216     164.0833 
  613000     299.4637   -10017.949   -9894.1198    638.17604    34.542289     20.00004    69.470691    173.33854 
  614000    295.75869   -10016.417   -9894.1195    638.17604    34.542289     20.00004    70.076823    166.48621 
  615000    296.87765   -10016.879   -9894.1195    638.17604    34.542289     20.00004    70.630716    167.44572 
  616000    296.45729   -10016.705   -9894.1194    638.17604    34.542289     20.00004    71.193379    156.88376 
  617000    296.75058   -10016.827   -9894.1194    638.17604    34.542289     20.00004    71.775777     167.0576 
  618000    299.40626   -10017.925   -9894.1194    638.17604    34.542289     20.00004    72.313536     204.7366 
  619000    298.41355   -10017.514   -9894.1195    638.17604    34.542289     20.00004    72.864408    196.43007 
  620000    297.41402   -10017.101   -9894.1197    638.17604    34.542289     20.00004     73.64825    180.27855 
  621000     295.6332   -10016.365   -9894.1193    638.17604    34.542289     20.00004    74.201277    187.24843 
  622000    302.53175   -10019.217   -9894.1193    638.17604    34.542289     20.00004    74.801887    196.11802 
  623000    298.79754   -10017.673   -9894.1193    638.17604    34.542289     20.00004    75.308716    168.87631 
  624000    297.84243   -10017.278   -9894.1193    638.17604    34.542289     20.00004    75.867796    163.15148 
  625000    295.55061    -10016.33   -9894.1188    638.17604    34.542289     20.00004    76.469198    147.04919 
  626000    290.55138   -10014.263   -9894.1187    638.17604    34.542289     20.00004    77.060205    148.53351 
  627000    291.57256   -10014.684   -9894.1183    638.17604    34.542289     20.00004    77.592487    135.67568 
  628000    294.08773   -10015.725   -9894.1192    638.17604    34.542289     20.00004    78.245011    144.14131 
  629000    293.46281   -10015.467   -9894.1196    638.17604    34.542289     20.00004    78.810613    167.20892 
  630000     294.2875   -10015.807   -9894.1184    638.17604    34.542289     20.00004    79.392225    165.12459 
  631000    291.40079   -10014.615   -9894.1194    638.17604    34.542289     20.00004    80.012377    151.85519 
  632000    294.16355   -10015.757   -9894.1191    638.17604    34.542289     20.00004    80.604213    162.35132 
  633000    292.83829   -10015.208   -9894.1187    638.17604    34.542289     20.00004    81.199778    173.30576 
  634000    296.59178    -10016.76   -9894.1183    638.17604    34.542289     20.00004     81.83343    167.59592 
  635000    301.53297   -10018.805   -9894.1199    638.17604    34.542289     20.00004    82.319904    171.61955 
  636000    303.53904   -10019.634   -9894.1196    638.17604    34.542289     20.00004    82.804688    182.99765 
  637000    298.32297   -10017.477   -9894.1198    638.17604    34.542289     20.00004    83.355584    183.91896 
  638000    294.91573   -10016.068   -9894.1191    638.17604    34.542289     20.00004    83.865611    189.88574 
  639000    296.14922   -10016.577   -9894.1185    638.17604    34.542289     20.00004    84.372091    184.27671 
  640000     297.9058   -10017.304   -9894.1189    638.17604    34.542289     20.00004    84.902774     167.9144 
  641000     297.0195   -10016.938   -9894.1194    638.17604    34.542289     20.00004    85.526181    169.32387 
  642000    296.29493   -10016.638   -9894.1187    638.17604    34.542289     20.00004    86.123853    155.75493 
  643000    304.48881   -10020.027   -9894.1198    638.17604    34.542289     20.00004    86.629623    168.41252 
  644000    293.04284   -10015.292   -9894.1181    638.17604    34.542289     20.00004    87.183051    167.90219 
  645000    301.76032   -10018.899   -9894.1206    638.17604    34.542289     20.00004    87.867203    149.93149 
  646000    303.38536   -10019.571   -9894.1207    638.17604    34.542289     20.00004     88.44549    153.49118 
  647000    297.44724   -10017.115   -9894.1195    638.17604    34.542289     20.00004    88.988473    150.64082 
  648000    301.13187    -10018.64   -9894.1205    638.17604    34.542289     20.00004    89.558365    166.01699 
  649000    295.43621   -10016.283   -9894.1192    638.17604    34.542289     20.00004    90.141385    169.35237 
  650000    299.49774   -10017.963   -9894.1195    638.17604    34.542289     20.00004    90.707446    159.79347 
  651000    297.39946   -10017.095   -9894.1191    638.17604    34.542289     20.00004    91.299484    164.44373 
  652000    297.23393   -10017.026   -9894.1191    638.17604    34.542289     20.00004    91.788301    187.61804 
  653000    298.89662   -10017.714   -9894.1197    638.17604    34.542289     20.00004    92.332549    176.94384 
  654000    297.68856   -10017.214   -9894.1193    638.17604    34.542289     20.00004    92.847296    169.54217 
  655000    296.35637   -10016.663   -9894.1186    638.17604    34.542289     20.00004    93.550817    182.08952 
  656000    297.78668   -10017.256     -9894.12    638.17604    34.542289     20.00004    94.061423    163.56246 
  657000    298.73673   -10017.648   -9894.1197    638.17604    34.542289     20.00004    94.638838     177.6253 
  658000    304.86694   -10020.183   -9894.1199    638.17604    34.542289     20.00004    95.333057    191.93736 
  659000    297.77455    -10017.25   -9894.1193    638.17604    34.542289     20.00004    95.917937    188.64163 
  660000    300.27523   -10018.284   -9894.1197    638.17604    34.542289     20.00004    96.573686    193.96137 
  661000    301.31243   -10018.713   -9894.1194    638.17604    34.542289     20.00004    97.094893    199.16553 
  662000     301.0879   -10018.621   -9894.1202    638.17604    34.542289     20.00004    97.646143    188.67674 
  663000    301.82246   -10018.925   -9894.1203    638.17604    34.542289     20.00004    98.217973    183.44541 
  664000    296.95804   -10016.913   -9894.1199    638.17604    34.542289     20.00004    98.805599    205.97345 
  665000    297.24749   -10017.032   -9894.1194    638.17604    34.542289     20.00004    99.286038    206.74374 
  666000     298.0148   -10017.349   -9894.1188    638.17604    34.542289     20.00004    99.762449    203.59741 
  667000    297.27564   -10017.044   -9894.1191    638.17604    34.542289     20.00004    100.33952     188.3372 
  668000    300.93906   -10018.559   -9894.1195    638.17604    34.542289     20.00004    100.98181    177.93493 
  669000    302.39677   -10019.162   -9894.1202    638.17604    34.542289     20.00004      101.628    184.93072 
  670000    304.80955   -10020.159   -9894.1193    638.17604    34.542289     20.00004    102.10139    207.39038 
  671000    299.36983    -10017.91   -9894.1192    638.17604    34.542289     20.00004    102.59869    178.48249 
  672000    298.93071   -10017.728   -9894.1192    638.17604    34.542289     20.00004    103.13346    162.05425 
  673000    299.81499   -10018.094   -9894.1193    638.17604    34.542289     20.00004    103.66586    151.87343 
  674000    299.73203   -10018.059   -9894.1184    638.17604    34.542289     20.00004    104.25882    164.19005 
  675000    290.92731   -10014.418   -9894.1183    638.17604    34.542289     20.00004    104.82022    169.94619 
  676000    300.77252    -10018.49   -9894.1192    638.17604    34.542289     20.00004    105.38052    159.36716 
  677000    306.74546    -10020.96   -9894.1194    638.17604    34.542289     20.00004    105.89406    170.45413 
  678000    301.38078   -10018.741   -9894.1194    638.17604    34.542289     20.00004    106.42921    153.38428 
  679000    301.37559   -10018.739   -9894.1192    638.17604    34.542289     20.00004    106.90933    152.91564 
  680000    305.80897   -10020.572   -9894.1194    638.17604    34.542289     20.00004    107.59675    171.82514 
  681000    301.27698   -10018.699   -9894.1195    638.17604    34.542289     20.00004    108.29008    149.30642 
  682000    291.62837   -10014.707   -9894.1181    638.17604    34.542289     20.00004    108.91298    145.32222 
  683000    295.73413   -10016.407   -9894.1197    638.17604    34.542289     20.00004    109.53699    149.19149 
  684000     306.6873   -10020.937   -9894.1205    638.17604    34.542289     20.00004    110.09623     168.1502 
  685000     303.1875   -10019.489   -9894.1197    638.17604    34.542289     20.00004    110.69478    177.18328 
  686000    302.29987   -10019.121   -9894.1194    638.17604    34.542289     20.00004    111.31609    191.77236 
  687000    297.76664   -10017.246   -9894.1188    638.17604    34.542289     20.00004    111.84704    194.56002 
  688000    298.95066   -10017.736   -9894.1194    638.17604    34.542289     20.00004    112.36861    183.20623 
  689000    300.71016   -10018.465   -9894.1201    638.17604    34.542289     20.00004    112.90196    184.90356 
  690000    297.05254   -10016.951   -9894.1188    638.17604    34.542289     20.00004    113.43035    185.07695 
  691000    297.77437   -10017.249   -9894.1187    638.17604    34.542289     20.00004    114.00105    198.14501 
  692000     296.8733   -10016.876   -9894.1175    638.17604    34.542289     20.00004    114.54694    166.68139 
  693000     295.9683   -10016.502   -9894.1182    638.17604    34.542289     20.00004    115.10261    171.03898 
  694000    301.39728   -10018.747   -9894.1182    638.17604    34.542289     20.00004    115.69836    193.27571 
  695000    302.41791    -10019.17   -9894.1197    638.17604    34.542289     20.00004    116.25948    203.46879 
  696000    299.61027   -10018.008   -9894.1183    638.17604    34.542289     20.00004    116.76144    199.95029 
  697000    299.35543   -10017.903   -9894.1186    638.17604    34.542289     20.00004    117.35226    186.63948 
  698000    301.65137   -10018.853   -9894.1192    638.17604    34.542289     20.00004    117.87574     190.9537 
  699000    296.49128   -10016.719   -9894.1187    638.17604    34.542289     20.00004    118.45716     156.8359 
  700000    293.96851   -10015.675   -9894.1184    638.17604    34.542289     20.00004     119.1278    156.56779 
  701000    303.63064   -10019.672     -9894.12    638.17604    34.542289     20.00004    119.68008    148.46508 
  702000    298.47956   -10017.542   -9894.1195    638.17604    34.542289     20.00004    120.29874    157.60417 
  703000    302.57777   -10019.236   -9894.1189    638.17604    34.542289     20.00004    120.91847    170.60163 
  704000    291.92179   -10014.828   -9894.1179    638.17604    34.542289     20.00004    121.42433    166.50498 
  705000    298.76455    -10017.66   -9894.1197    638.17604    34.542289     20.00004    121.98759    148.38941 
  706000    298.81528    -10017.68   -9894.1189    638.17604    34.542289     20.00004    122.58404     167.2729 
  707000    297.03193   -10016.943   -9894.1193    638.17604    34.542289     20.00004    123.17614    159.06744 
  708000    295.66643   -10016.378   -9894.1189    638.17604    34.542289     20.00004     123.7118    164.99074 
  709000    294.10081    -10015.73   -9894.1186    638.17604    34.542289     20.00004    124.29764    175.74153 
  710000    297.97817   -10017.333   -9894.1183    638.17604    34.542289     20.00004    124.82604    180.19442 
  711000    293.04332   -10015.293   -9894.1187    638.17604    34.542289     20.00004    125.38954    198.44751 
  712000    301.20607   -10018.669   -9894.1196    638.17604    34.542289     20.00004    125.91526    169.55628 
  713000    295.74414    -10016.41   -9894.1186    638.17604    34.542289     20.00004    126.48982    169.50803 
  714000    296.19551   -10016.596   -9894.1184    638.17604    34.542289     20.00004    127.08421      164.981 
  715000    300.26396    -10018.28   -9894.1194    638.17604    34.542289     20.00004    127.66288     179.6273 
  716000    298.14379   -10017.402   -9894.1189    638.17604    34.542289     20.00004     128.2544    156.95374 
  717000    286.61059   -10012.632   -9894.1176    638.17604    34.542289     20.00004    128.82052    140.91025 
  718000    295.42499   -10016.278   -9894.1186    638.17604    34.542289     20.00004    129.42136    144.88605 
  719000    298.76542    -10017.66   -9894.1191    638.17604    34.542289     20.00004    130.09695    172.21689 
  720000    300.91782    -10018.55   -9894.1197    638.17604    34.542289     20.00004    130.74763    175.99632 
  721000    302.48661   -10019.198   -9894.1183    638.17604    34.542289     20.00004    131.35897    165.57192 
  722000    297.16142   -10016.997   -9894.1194    638.17604    34.542289     20.00004    131.93711    170.81114 
  723000    299.44387   -10017.941   -9894.1201    638.17604    34.542289     20.00004    132.54797    162.72097 
  724000    292.97251   -10015.263   -9894.1183    638.17604    34.542289     20.00004    133.26507    142.80915 
  725000    297.35729   -10017.077    -9894.119    638.17604    34.542289     20.00004    134.06097     167.2767 
  726000    295.11577    -10016.15    -9894.119    638.17604    34.542289     20.00004    134.55757    173.28141 
  727000    294.52159   -10015.905   -9894.1192    638.17604    34.542289     20.00004    135.12828    177.67151 
  728000    301.70456   -10018.876   -9894.1197    638.17604    34.542289     20.00004    135.73456    147.62397 
  729000      295.308   -10016.229   -9894.1187    638.17604    34.542289     20.00004     136.3275    139.92011 
  730000    298.67809   -10017.624   -9894.1195    638.17604    34.542289     20.00004    136.86835    156.44121 
  731000    300.29246   -10018.293   -9894.1208    638.17604    34.542289     20.00004    137.51789    163.88648 
  732000    296.45632   -10016.705   -9894.1196    638.17604    34.542289     20.00004    138.07056    155.74637 
  733000    303.40015   -10019.576   -9894.1191    638.17604    34.542289     20.00004    138.68364    172.87827 
  734000    298.31028   -10017.471   -9894.1192    638.17604    34.542289     20.00004    139.19139    155.66816 
  735000    295.66758   -10016.378   -9894.1189    638.17604    34.542289     20.00004    139.73302    164.15889 
  736000    300.83913   -10018.519   -9894.1208    638.17604    34.542289     20.00004    140.41036    179.85887 
  737000    302.37379   -10019.152   -9894.1194    638.17604    34.542289     20.00004    141.00982    182.75008 
  738000    290.41706   -10014.207   -9894.1184    638.17604    34.542289     20.00004    141.58617    176.21425 
  739000    294.85428   -10016.042   -9894.1188    638.17604    34.542289     20.00004     142.3249    151.26046 
  740000    295.49176   -10016.306   -9894.1191    638.17604    34.542289     20.00004    142.97079    136.64928 
  741000    302.20586   -10019.084   -9894.1206    638.17604    34.542289     20.00004    143.63297    173.49696 
  742000    295.58479   -10016.344   -9894.1187    638.17604    34.542289     20.00004    144.23879    173.66214 
  743000    299.47326   -10017.953   -9894.1195    638.17604    34.542289     20.00004    144.80012    161.48005 
  744000    300.26896   -10018.282   -9894.1197    638.17604    34.542289     20.00004    145.38576    158.69508 
  745000    297.97688   -10017.334   -9894.1198    638.17604    34.542289     20.00004    146.01139    172.11426 
  746000    297.49201   -10017.134   -9894.1199    638.17604    34.542289     20.00004    146.66093    159.78023 
  747000    295.33399   -10016.242   -9894.1207    638.17604    34.542289     20.00004    147.20386    164.17432 
  748000     292.0299   -10014.874    -9894.119    638.17604    34.542289     20.00004    147.74083     174.3234 
  749000    299.04583   -10017.776   -9894.1199    638.17604    34.542289     20.00004    148.27807    169.85754 
  750000    298.10125   -10017.385   -9894.1196    638.17604    34.542289     20.00004    148.86276    167.81194 
  751000    296.73621   -10016.822    -9894.121    638.17604    34.542289     20.00004    149.47042     170.2009 
  752000    293.56538   -10015.509   -9894.1191    638.17604    34.542289     20.00004    150.13428    160.04446 
  753000     301.4364   -10018.765   -9894.1204    638.17604    34.542289     20.00004    150.72449    178.85613 
  754000    299.47134   -10017.953   -9894.1204    638.17604    34.542289     20.00004    151.15489    185.34438 
  755000    302.97728   -10019.402   -9894.1202    638.17604    34.542289     20.00004    151.71633    181.20544 
  756000    298.44743   -10017.529   -9894.1199    638.17604    34.542289     20.00004    152.33669    169.16379 
  757000    298.81689   -10017.681   -9894.1196    638.17604    34.542289     20.00004    152.93607    182.06794 
  758000    297.34269   -10017.073   -9894.1205    638.17604    34.542289     20.00004    153.45765    166.37047 
  759000    301.02875   -10018.597   -9894.1208    638.17604    34.542289     20.00004    154.00806    150.94988 
  760000    300.69826    -10018.46     -9894.12    638.17604    34.542289     20.00004    154.57433     163.9162 
  761000    295.19714   -10016.183   -9894.1184    638.17604    34.542289     20.00004    155.09821    172.70534 
  762000    297.03285   -10016.943   -9894.1193    638.17604    34.542289     20.00004    155.66602    161.61512 
  763000    303.17588   -10019.485   -9894.1208    638.17604    34.542289     20.00004    156.33611    168.88043 
  764000    301.41693   -10018.757   -9894.1196    638.17604    34.542289     20.00004    156.90559    189.28364 
  765000    299.12178   -10017.807   -9894.1194    638.17604    34.542289     20.00004    157.51958     173.9287 
  766000    303.17827   -10019.485   -9894.1199    638.17604    34.542289     20.00004    158.12839    163.26225 
  767000    298.49946    -10017.55   -9894.1199    638.17604    34.542289     20.00004    158.69569    166.20435 
  768000    292.59843    -10015.11   -9894.1192    638.17604    34.542289     20.00004     159.2879    176.99082 
  769000    297.84325   -10017.278   -9894.1192    638.17604    34.542289     20.00004    159.81193    167.95239 
  770000    298.29275   -10017.465   -9894.1199    638.17604    34.542289     20.00004    160.39607    180.87698 
  771000    301.94566   -10018.976   -9894.1201    638.17604    34.542289     20.00004    160.91044    184.68819 
  772000    296.15926   -10016.582   -9894.1194    638.17604    34.542289     20.00004    161.44549    194.22855 
  773000    299.78777   -10018.083     -9894.12    638.17604    34.542289     20.00004    161.89691     188.1245 
  774000    304.32421    -10019.96    -9894.121    638.17604    34.542289     20.00004    162.39281    157.71259 
  775000    292.74822   -10015.171   -9894.1185    638.17604    34.542289     20.00004     162.9553    166.94749 
  776000    294.59255   -10015.934   -9894.1186    638.17604    34.542289     20.00004    163.46835    185.04042 
  777000    299.13663   -10017.814   -9894.1197    638.17604    34.542289     20.00004    164.02894    147.96163 
  778000    305.03329   -10020.252   -9894.1195    638.17604    34.542289     20.00004    164.69975    156.39435 
  779000    294.93515   -10016.075   -9894.1186    638.17604    34.542289     20.00004    165.24281    165.85453 
  780000    296.96887   -10016.917   -9894.1191    638.17604    34.542289     20.00004    165.76667    171.11968 
  781000    304.93921   -10020.214   -9894.1202    638.17604    34.542289     20.00004    166.44787    175.84127 
  782000    297.12984   -10016.984   -9894.1195    638.17604    34.542289     20.00004    167.02322    183.40427 
  783000    302.15524   -10019.062   -9894.1198    638.17604    34.542289     20.00004    167.67847    199.94856 
  784000    289.68433   -10013.903    -9894.118    638.17604    34.542289     20.00004    168.26703    182.20024 
  785000    302.35366   -10019.143   -9894.1185    638.17604    34.542289     20.00004    168.87458     190.0251 
  786000    295.45542   -10016.291    -9894.119    638.17604    34.542289     20.00004    169.41396    183.50816 
  787000    296.84119   -10016.864   -9894.1189    638.17604    34.542289     20.00004    170.01189    173.99711 
  788000    298.66449   -10017.619   -9894.1198    638.17604    34.542289     20.00004    170.63481    191.19963 
  789000      295.326   -10016.237   -9894.1191    638.17604    34.542289     20.00004     171.2549    194.97479 
  790000    299.17414   -10017.828   -9894.1189    638.17604    34.542289     20.00004    171.82658    208.43502 
  791000     293.2648   -10015.385   -9894.1188    638.17604    34.542289     20.00004    172.40409    185.48068 
  792000    305.23332   -10020.336   -9894.1206    638.17604    34.542289     20.00004    172.99807    170.04388 
  793000    298.12218   -10017.393   -9894.1189    638.17604    34.542289     20.00004    173.45276    180.63612 
  794000    295.07692   -10016.135   -9894.1199    638.17604    34.542289     20.00004    174.02961    177.96895 
  795000    301.03418   -10018.599   -9894.1205    638.17604    34.542289     20.00004    174.71124    156.22922 
  796000    296.22601    -10016.61     -9894.12    638.17604    34.542289     20.00004    175.27222    160.13259 
  797000    303.13462   -10019.468   -9894.1205    638.17604    34.542289     20.00004    175.82237    157.22822 
  798000    299.42838   -10017.935   -9894.1205    638.17604    34.542289     20.00004    176.37662    156.95622 
  799000    298.84763   -10017.695   -9894.1205    638.17604    34.542289     20.00004    176.98476    164.62334 
  800000    293.02863   -10015.288   -9894.1196    638.17604    34.542289     20.00004    177.52095    165.25824 
  801000     303.6943   -10019.699   -9894.1206    638.17604    34.542289     20.00004    178.00878    178.43655 
  802000    296.77725   -10016.838   -9894.1199    638.17604    34.542289     20.00004    178.57342    161.07367 
  803000    298.03563   -10017.359   -9894.1205    638.17604    34.542289     20.00004    179.19441    172.64157 
  804000    299.26997   -10017.869   -9894.1203    638.17604    34.542289     20.00004    179.73738    172.80082 
  805000    293.00654   -10015.278   -9894.1188    638.17604    34.542289     20.00004    180.33104     184.1026 
  806000    299.03104    -10017.77   -9894.1196    638.17604    34.542289     20.00004    180.83238    180.37163 
  807000    293.68937   -10015.561   -9894.1194    638.17604    34.542289     20.00004     181.4488    176.35452 
  808000    300.50708    -10018.38   -9894.1196    638.17604    34.542289     20.00004     182.0597     178.9629 
  809000    299.39557    -10017.92   -9894.1188    638.17604    34.542289     20.00004    182.57479    190.20424 
  810000    294.72366   -10015.988   -9894.1192    638.17604    34.542289     20.00004     183.0861    195.38814 
  811000    296.79515   -10016.845   -9894.1191    638.17604    34.542289     20.00004    183.63153    190.35032 
  812000    294.77167   -10016.008   -9894.1189    638.17604    34.542289     20.00004    184.11852    197.25593 
  813000    298.48539   -10017.544   -9894.1192    638.17604    34.542289     20.00004    184.65561    180.16577 
  814000    302.50909   -10019.208   -9894.1199    638.17604    34.542289     20.00004    185.17981    169.57066 
  815000    298.98835   -10017.752   -9894.1194    638.17604    34.542289     20.00004    185.86354    161.58707 
  816000    299.25838   -10017.864   -9894.1199    638.17604    34.542289     20.00004    186.45338    175.72076 
  817000    299.15112    -10017.82   -9894.1199    638.17604    34.542289     20.00004    186.97403    181.61372 
  818000    300.26396   -10018.279   -9894.1193    638.17604    34.542289     20.00004    187.49335    183.64538 
  819000    294.29289    -10015.81   -9894.1188    638.17604    34.542289     20.00004     188.1122    189.49123 
  820000    300.50299   -10018.379   -9894.1198    638.17604    34.542289     20.00004    188.76501    162.07042 
  821000    297.18043   -10017.005   -9894.1201    638.17604    34.542289     20.00004    189.43831    187.85684 
  822000    298.58254   -10017.585     -9894.12    638.17604    34.542289     20.00004    190.01689    173.78316 
  823000    296.47145   -10016.711   -9894.1191    638.17604    34.542289     20.00004    190.63372     171.6921 
  824000    296.71208   -10016.811   -9894.1192    638.17604    34.542289     20.00004    191.27908     169.7589 
  825000    300.10106   -10018.212   -9894.1194    638.17604    34.542289     20.00004    191.88686    186.71046 
  826000    298.08352   -10017.378   -9894.1195    638.17604    34.542289     20.00004     192.4951    183.89659 
  827000    298.59077   -10017.588   -9894.1194    638.17604    34.542289     20.00004    193.10618    194.26121 
  828000    296.03949   -10016.533   -9894.1198    638.17604    34.542289     20.00004    193.74859    174.59579 
  829000    296.06733   -10016.545   -9894.1202    638.17604    34.542289     20.00004    194.27569    153.92373 
  830000    292.15773   -10014.928   -9894.1194    638.17604    34.542289     20.00004    194.73726    156.19431 
[...]
 4291000    295.91683   -10016.488   -9894.1251    1037.9916    191.49593    174.53709 
 4292000    293.64407   -10015.548   -9894.1252    1038.5614    174.34104    174.53698 
 4293000    295.83385   -10016.454   -9894.1255    1039.1549    179.29731    174.53964 
 4294000    290.27916   -10014.156   -9894.1246    1039.6921    174.28652     174.5395 
 4295000    296.73182   -10016.824   -9894.1249    1040.2798    179.14829    174.54206 
 4296000    295.64027   -10016.375   -9894.1265    1040.8724     206.9051    174.56007 
 4297000    295.34442   -10016.251   -9894.1251    1041.4389    207.98956    174.57866 
 4298000    291.87539   -10014.816   -9894.1249    1041.9861    215.87743    174.60162 
 4299000     300.5228   -10018.394   -9894.1266     1042.634    187.76416    174.60893 
 4300000    292.60299   -10015.118   -9894.1256     1043.192    172.02467     174.6075 
 4301000    301.60302    -10018.84    -9894.126    1043.7393    179.42737    174.61017 
 4302000    298.88386   -10017.715   -9894.1261    1044.2849    172.01554    174.60873 
 4303000    297.93139   -10017.321   -9894.1251    1044.8405    172.65046    174.60765 
 4304000    297.30631   -10017.063   -9894.1257    1045.4791    175.69283    174.60825 
 4305000     296.6787   -10016.804   -9894.1266    1045.9933    167.23922    174.60417 
 4306000    295.08192   -10016.142   -9894.1247    1046.5969    169.39489    174.60129 
 4307000    300.47402   -10018.373   -9894.1263    1047.0486     194.6968     174.6124 
 4308000    305.99328   -10020.655   -9894.1263    1047.6003    197.19673    174.62488 
 4309000    296.88384   -10016.888   -9894.1255    1048.1447    220.64243    174.65031 
 4310000     295.3691   -10016.262   -9894.1259    1048.6897    213.36591    174.67169 
 4311000    301.99045       -10019   -9894.1262    1049.2878    207.35986    174.68973 
 4312000    296.21667   -10016.612    -9894.125    1049.8965    195.16177    174.70102 
 4313000    291.19474   -10014.534   -9894.1244    1050.4277    189.71921     174.7093 
 4314000    295.23341   -10016.206   -9894.1265      1050.98    185.85937    174.71544 
 4315000    296.45049   -10016.708   -9894.1249    1051.4681    177.15862    174.71679 
 4316000     299.5422   -10017.987   -9894.1258    1052.0492    177.58125    174.71836 
 4317000    295.59379   -10016.355   -9894.1257     1052.611    189.60977    174.72655 
 4318000    299.64772   -10018.031   -9894.1253     1053.194    182.10898    174.73061 
 4319000    300.40001   -10018.342   -9894.1261    1053.7918    176.75976    174.73173 
 4320000    295.15461   -10016.173   -9894.1255    1054.3147    174.97497    174.73186 
 4321000    301.14441   -10018.651   -9894.1264    1054.8558    186.47769    174.73831 
 4322000    296.41734   -10016.695   -9894.1255     1055.399    171.15732    174.73634 
 4323000    298.70144   -10017.639   -9894.1254      1056.01    178.34213    174.73832 
 4324000    292.66731   -10015.144    -9894.125    1056.5516    181.12955    174.74182 
 4325000    291.31832   -10014.585   -9894.1244    1057.0714    174.11017    174.74148 
 4326000    295.10752   -10016.153   -9894.1252    1057.6435     168.5875    174.73811 
 4327000     295.4917   -10016.312   -9894.1256    1058.3449    169.92525    174.73547 
 4328000    297.14504   -10016.996   -9894.1251    1058.9242     189.7385    174.74368 
 4329000    305.75471   -10020.557   -9894.1264    1059.4525    185.22618    174.74941 
 4330000    294.67145   -10015.972   -9894.1248    1059.9476    184.99812      174.755 
 4331000    297.92208   -10017.318   -9894.1259    1060.4281    183.87033    174.75998 
 4332000    294.69023   -10015.982   -9894.1262    1060.9598    167.83279     174.7562 
 4333000    300.62008   -10018.434   -9894.1267    1061.4921    165.87751    174.75136 
 4334000    300.42474   -10018.352   -9894.1259    1062.1274    169.22414    174.74835 
 4335000      298.475   -10017.546   -9894.1258    1062.7027    173.37417     174.7476 
 4336000    303.81128   -10019.754   -9894.1268    1063.1504    182.67599    174.75191 
 4337000    299.02119   -10017.772   -9894.1261    1063.7234     186.9157    174.75853 
 4338000    300.04581   -10018.196   -9894.1261    1064.2695    187.02267     174.7652 
 4339000    296.79752   -10016.853   -9894.1262    1064.8005    180.03629    174.76807 
 4340000    297.53997   -10017.159   -9894.1255     1065.361    181.43287    174.77169 
 4341000     298.9451    -10017.74   -9894.1255    1066.0807    177.63097    174.77324 
 4342000    298.18895   -10017.428   -9894.1261    1066.7152    166.56266    174.76878 
 4343000    294.23583   -10015.792   -9894.1245    1067.3299    158.15128    174.75977 
 4344000    301.91209   -10018.969   -9894.1272    1067.8365    161.94697    174.75283 
 4345000    294.36492   -10015.846   -9894.1251    1068.4599     169.3802    174.74992 
 4346000    293.58542   -10015.524   -9894.1254    1069.0835    182.94672    174.75435 
 4347000    300.87894   -10018.541   -9894.1266    1069.6759    203.60294    174.76996 
 4348000    292.82006   -10015.208   -9894.1258    1070.2442    211.14021    174.78964 
 4349000    303.61298   -10019.671   -9894.1256    1070.7251    183.39238    174.79429 
 4350000    303.36446   -10019.568   -9894.1262    1071.2244    196.66282     174.8061 
 4351000    298.31944   -10017.481   -9894.1251    1071.8443    194.90047    174.81695 
 4352000    300.56921   -10018.412   -9894.1261    1072.3681     173.4108    174.81619 
 4353000    297.69189   -10017.222   -9894.1258    1072.9293    175.54747    174.81659 
 4354000     295.6545   -10016.379   -9894.1248     1073.462    156.34788    174.80663 
 4355000    298.31234   -10017.479   -9894.1254    1074.0181    162.16473    174.79982 
 4356000     298.4535   -10017.537    -9894.125    1074.5843    153.40517     174.7883 
 4357000    302.26855   -10019.115   -9894.1261    1075.0856    122.93622    174.76039 
 4358000    297.69531   -10017.224   -9894.1261    1075.7287      145.221     174.7445 
 4359000    291.96557   -10014.853   -9894.1246    1076.3191    149.60614    174.73098 
 4360000    296.29469   -10016.644    -9894.125    1076.8721    154.66865     174.7202 
 4361000    294.63859   -10015.959   -9894.1248    1077.4654    142.50875     174.7029 
 4362000    298.82528    -10017.69   -9894.1245    1078.0582    137.50799    174.68294 
 4363000     293.8024   -10015.613   -9894.1249    1078.6189    150.54422    174.66999 
 4364000     294.6186    -10015.95   -9894.1246    1079.2811    164.65968    174.66462 
 4365000    296.82999   -10016.865   -9894.1248    1079.8498     165.4548    174.65969 
 4366000    291.83432   -10014.798   -9894.1239    1080.3651    166.56381    174.65535 
 4367000    300.69454   -10018.463   -9894.1251     1081.022    177.14543    174.65668 
 4368000    298.80099   -10017.681   -9894.1256    1081.5606    183.89983    174.66163 
 4369000    297.66264    -10017.21   -9894.1255     1082.081     174.0295    174.66129 
 4370000    297.93559   -10017.322   -9894.1249    1082.7106    172.82184    174.66031 
 4371000    300.31803   -10018.308   -9894.1251    1083.2932    163.16905    174.65417 
 4372000    302.65732   -10019.275   -9894.1251    1083.9557    153.28135    174.64276 
 4373000    300.18533   -10018.253   -9894.1256    1084.5189    166.18323    174.63824 
 4374000    299.88438   -10018.129   -9894.1254    1085.1776    152.27894    174.62632 
 4375000    302.94403   -10019.394    -9894.126    1085.8756    146.26271     174.6112 
 4376000     297.3978   -10017.101   -9894.1257    1086.4445    155.84695     174.6012 
 4377000    296.89167    -10016.89   -9894.1247    1087.0421    159.22418    174.59301 
 4378000    297.06491   -10016.962   -9894.1251    1087.5851    173.43611     174.5924 
 4379000    292.81999   -10015.206   -9894.1243    1088.2264    180.25138    174.59541 
 4380000    302.95239   -10019.398    -9894.126    1088.8225    203.21022    174.61062 
 4381000    299.44174   -10017.945   -9894.1249    1089.3859    201.19331    174.62475 
 4382000    299.71087   -10018.057   -9894.1255    1090.0657    198.82246     174.6376 
 4383000    304.41816   -10020.003   -9894.1255    1090.6072    185.02638    174.64311 
 4384000    297.83476    -10017.28   -9894.1245    1091.1789    191.15436    174.65187 
 4385000    295.24916   -10016.211   -9894.1243    1091.7829    187.70382    174.65879 
 4386000    300.28135   -10018.293   -9894.1255    1092.3366     188.0391    174.66588 
 4387000    299.43893   -10017.943   -9894.1241     1092.915      169.169    174.66297 
 4388000    297.89709   -10017.307   -9894.1254    1093.4774    155.68667    174.65292 
 4389000    293.31693   -10015.412   -9894.1242    1093.9709    173.26527    174.65219 
 4390000    302.60199   -10019.251   -9894.1245    1094.4827    197.68036    174.66437 
 4391000    290.72466   -10014.339   -9894.1231    1095.0729    190.16091    174.67256 
 4392000    303.23517   -10019.514   -9894.1256    1095.7283    193.95393    174.68274 
 4393000    296.32289   -10016.656   -9894.1253    1096.3458     188.7127    174.69015 
 4394000    299.68149   -10018.044   -9894.1249    1096.9204    173.06134    174.68929 
 4395000    291.21424   -10014.542   -9894.1238    1097.5779    167.09486    174.68529 
 4396000    304.43946   -10020.012   -9894.1257    1098.1588    196.78613    174.69694 
 4397000    299.24248   -10017.862   -9894.1248    1098.7327    188.46799    174.70419 
 4398000    297.61046   -10017.188   -9894.1249    1099.3324    186.81236    174.71057 
 4399000    298.33244   -10017.486   -9894.1243     1099.888    190.46881    174.71886 
 4400000    295.12299   -10016.159   -9894.1242    1100.4159     180.7573    174.72204 
 4401000    300.16284   -10018.243   -9894.1247    1101.0007     190.3044    174.73023 
 4402000    293.74925    -10015.59   -9894.1239    1101.5079    199.93763    174.74348 
 4403000    299.08238   -10017.797   -9894.1254    1102.0472    204.01871    174.75885 
 4404000    299.24632   -10017.864   -9894.1247    1102.5961    198.93705    174.77155 
 4405000    295.56006    -10016.34   -9894.1251    1103.1606    189.41537    174.77923 
 4406000    298.64824   -10017.617   -9894.1247    1103.7668    195.92708    174.79032 
 4407000    299.25649   -10017.868   -9894.1248    1104.3379     200.5674    174.80383 
 4408000    297.23041    -10017.03   -9894.1243    1104.7856     205.3582    174.81983 
 4409000    297.20501   -10017.019    -9894.124    1105.4126    208.96926    174.83771 
 4410000    296.53571   -10016.742    -9894.124     1105.863    196.47698    174.84904 
 4411000    301.24199   -10018.691   -9894.1262    1106.3715    190.18985    174.85706 
 4412000    293.97867   -10015.686   -9894.1251    1107.0208    178.11211    174.85876 
 4413000    293.17579   -10015.354   -9894.1245    1107.5383    189.43955    174.86638 
 4414000    295.93346   -10016.494   -9894.1247    1108.1447    180.26742     174.8692 
 4415000      297.861   -10017.291   -9894.1249    1108.7574    188.71711    174.87643 
 4416000    299.03798   -10017.779   -9894.1258    1109.2645    201.01646    174.89006 
 4417000    295.06223   -10016.133   -9894.1242    1109.8053    175.30239    174.89028 
 4418000    303.85228   -10019.769   -9894.1255    1110.3794    188.99382    174.89763 
 4419000    299.44127   -10017.944   -9894.1245     1110.944     193.2497    174.90719 
 4420000    300.05192   -10018.198   -9894.1254    1111.5054    174.82591    174.90714 
 4421000    303.22671    -10019.51   -9894.1251    1112.0087    175.96611    174.90769 
 4422000    299.56754   -10017.997   -9894.1247     1112.636    206.62699    174.92419 
 4423000    299.18262   -10017.839   -9894.1258    1113.1282    221.43634    174.94836 
 4424000    293.52163   -10015.496   -9894.1234    1113.6898    206.01607     174.9645 
 4425000    303.78631   -10019.742   -9894.1256    1114.3061    183.05044     174.9687 
 4426000    301.65482    -10018.86   -9894.1252    1114.9739    193.54085    174.97834 
 4427000    299.56829   -10017.998   -9894.1254    1115.4733     199.2575    174.99093 
 4428000    294.23324   -10015.791   -9894.1245    1116.0143    178.86744    174.99294 
 4429000     298.9677   -10017.749   -9894.1245      1116.59    213.59007    175.01294 
 4430000    302.64383   -10019.269   -9894.1248    1117.1956    207.34444    175.02968 
 4431000    300.15337   -10018.239   -9894.1242    1117.7969    185.55029    175.03513 
 4432000    296.80592   -10016.855   -9894.1244    1118.3076    191.78626    175.04379 
 4433000    296.56914   -10016.756   -9894.1241    1118.9435    172.15663     175.0423 
 4434000    296.50537    -10016.73   -9894.1242    1119.5012    188.56713    175.04929 
 4435000    297.37246   -10017.089   -9894.1245    1120.0192      187.764    175.05586 
 4436000    298.20413   -10017.432   -9894.1235    1120.6244    198.15101    175.06778 
 4437000     295.5706   -10016.344   -9894.1243     1121.138    191.97976    175.07651 
 4438000    300.71986   -10018.474   -9894.1254    1121.7011    185.29184    175.08178 
 4439000     303.2427   -10019.519   -9894.1267     1122.245     177.1496    175.08284 
 4440000    301.98026   -10018.995   -9894.1254    1122.8421    171.83575    175.08117 
 4441000    296.99196   -10016.931   -9894.1243    1123.4094    180.96932     175.0842 
 4442000    291.24602   -10014.555   -9894.1234    1123.9394    170.46192    175.08182 
 4443000    292.14627   -10014.927   -9894.1236    1124.7195    158.66475    175.07338 
 4444000    300.67496   -10018.455   -9894.1245    1125.3754    158.01299    175.06461 
 4445000    296.37665   -10016.676   -9894.1237    1125.9394    156.50799    175.05507 
 4446000    296.48572   -10016.722   -9894.1247    1126.6015    154.14074    175.04433 
 4447000    300.79227   -10018.504    -9894.125    1127.2996     143.0585    175.02791 
 4448000    302.48576   -10019.204   -9894.1256    1127.9493    157.82759    175.01908 
 4449000    294.84754   -10016.044   -9894.1236     1128.535    167.79705    175.01538 
 4450000    297.27333   -10017.048   -9894.1247    1129.2044    170.35632    175.01299 
 4451000    295.04015   -10016.124   -9894.1243    1129.7339    162.90254    175.00679 
 4452000     298.4014   -10017.514   -9894.1243     1130.269    156.37101    174.99725 
 4453000    299.24061   -10017.862   -9894.1248    1130.8399    146.22296    174.98252 
 4454000    293.88363   -10015.647   -9894.1249     1131.346    172.04085    174.98102 
 4455000    297.76147    -10017.25   -9894.1251    1131.9731    139.34848     174.9628 
 4456000    297.54928   -10017.162    -9894.124    1132.6033    161.58836    174.95596 
 4457000    293.52729     -10015.5   -9894.1254    1133.2254    160.15396     174.9484 
 4458000    297.90282   -10017.308   -9894.1246    1133.7803    160.42659    174.94099 
 4459000    294.53713   -10015.917   -9894.1247     1134.466    167.72634    174.93731 
 4460000    293.49768   -10015.487   -9894.1247    1135.1915    160.91528    174.93016 
 4461000    295.64417   -10016.374   -9894.1245    1135.8184    167.56079     174.9264 
 4462000     307.3598    -10021.22   -9894.1259    1136.4051    196.48744    174.93739 
 4463000    299.82034   -10018.102   -9894.1253    1136.9381    193.38368    174.94678 
 4464000    295.99304   -10016.519   -9894.1252    1137.4862    178.13781     174.9484 
 4465000    292.67618   -10015.146   -9894.1236     1138.054    172.05041    174.94693 
 4466000    295.02843   -10016.119   -9894.1235    1138.6788    173.01772    174.94595 
 4467000    301.12655   -10018.642   -9894.1253    1139.2473    169.60003    174.94323 
 4468000    299.86166    -10018.12   -9894.1258    1139.7911    166.13872    174.93876 
 4469000    293.58239   -10015.522   -9894.1245    1140.2936    176.08878    174.93935 
 4470000    300.50204   -10018.384   -9894.1256    1140.7871    176.85276    174.94032 
 4471000    297.79687   -10017.265   -9894.1247    1141.4308    190.02578    174.94797 
 4472000    304.81969    -10020.17   -9894.1256    1141.8728     163.8197    174.94233 
 4473000    300.79563   -10018.505   -9894.1252    1142.4369    162.53104    174.93604 
 4474000    295.62396   -10016.365    -9894.124    1142.9363    177.48468    174.93733 
 4475000    294.63148   -10015.955   -9894.1239    1143.5972    173.23225    174.93647 
 4476000    302.99149   -10019.414   -9894.1256    1144.1428    177.53142    174.93778 
 4477000    297.29429   -10017.056   -9894.1242    1144.7044    175.28212    174.93795 
 4478000    298.50604   -10017.558   -9894.1245    1145.2958    160.47507    174.93064 
 4479000    300.40249   -10018.343   -9894.1256    1145.9308    155.43924     174.9208 
 4480000    298.34037    -10017.49   -9894.1252    1146.4576    163.01774    174.91479 
 4481000    295.37955   -10016.265   -9894.1249    1147.0105    180.14124    174.91743 
 4482000    300.56248   -10018.409   -9894.1253    1147.5974    183.11327    174.92156 
 4483000    297.23031   -10017.031   -9894.1251    1148.1614    194.81617    174.93159 
 4484000    304.28133   -10019.947   -9894.1261    1148.8356    192.26124    174.94032 
 4485000    295.32147   -10016.241   -9894.1248    1149.4298    174.92008    174.94031 
 4486000    298.88039   -10017.712   -9894.1244    1149.9345    175.25088    174.94047 
 4487000    296.91097   -10016.897   -9894.1234    1150.5562    155.88282    174.93088 
 4488000     297.2416   -10017.036   -9894.1255    1151.1439    147.25431    174.91696 
 4489000    298.96051   -10017.746   -9894.1248    1151.7591    157.11212    174.90802 
 4490000     293.4812   -10015.479   -9894.1237    1152.3585     174.8745      174.908 
 4491000    300.51642    -10018.39   -9894.1251     1152.937    172.33981    174.90671 
 4492000    297.63888   -10017.199   -9894.1243    1153.5559    188.61983    174.91359 
 4493000    299.70556   -10018.054   -9894.1246    1154.1052    188.64114    174.92048 
 4494000    294.83151   -10016.038   -9894.1242     1154.767    185.27591    174.92567 
 4495000    295.20558   -10016.192   -9894.1238    1155.3128    177.45134    174.92693 
 4496000    299.68037   -10018.044   -9894.1248    1156.0818    199.13521    174.93905 
 4497000     296.2769   -10016.635   -9894.1233     1156.578    190.02873    174.94661 
 4498000    300.03768   -10018.191   -9894.1248    1157.1741    147.52028    174.93289 
 4499000    294.75247   -10016.005   -9894.1244     1157.769    154.99517    174.92292 
 4500000    299.58834   -10018.005   -9894.1247    1158.3655    146.02012    174.90847 
Loop time of 24242.3 on 2 procs for 2000000 steps with 3200 atoms

Performance: 7.128 ns/day, 3.367 hours/ns, 82.501 timesteps/s
41.3% CPU use with 2 MPI tasks x 1 OpenMP threads

MPI task timing breakdown:
Section |  min time  |  avg time  |  max time  |%varavg| %total
---------------------------------------------------------------
Pair    | 8155.5     | 8162.7     | 8169.8     |   7.9 | 33.67
Neigh   | 12.813     | 12.867     | 12.922     |   1.5 |  0.05
Comm    | 9353.1     | 9357.6     | 9362.2     |   4.7 | 38.60
Output  | 8.0711     | 8.3854     | 8.6997     |  10.9 |  0.03
Modify  | 2475.6     | 2548.2     | 2620.9     | 143.9 | 10.51
Other   |            | 4153       |            |       | 17.13

Nlocal:        1600.00 ave        1600 max        1600 min
Histogram: 2 0 0 0 0 0 0 0 0 0
Nghost:        558.000 ave         558 max         558 min
Histogram: 2 0 0 0 0 0 0 0 0 0
Neighs:        0.00000 ave           0 max           0 min
Histogram: 2 0 0 0 0 0 0 0 0 0
FullNghs:      19198.0 ave       19198 max       19198 min
Histogram: 2 0 0 0 0 0 0 0 0 0

Total # of neighbors = 38396
Ave neighs/atom = 11.998750
Neighbor list builds = 11306
Dangerous builds = 0
Total wall time: 13:13:02
