 # File generated with Atomsk by arman on 2021-02-24 11:28:46
 
          75  atoms
           2  atom types
 
      0.00000000      16.08145100  xlo xhi
      0.00000000      13.92694510  ylo yhi
      0.00000000       5.23996200  zlo zhi
     -8.04072550       0.00000000       0.00000000  xy xz yz
 
Masses
 
           1   69.72300000    # Ga
           2   14.00700000    # N 
 
Atoms # atomic
 
         1    1        1.60813706       0.92846765       2.61536983
         2    2        1.60813706       0.92846765       4.58957792
         3    2        0.00000804       1.85692137       1.96959692
         4    1       -0.00000804       3.71385667       2.61536983
         5    2       -0.00000804       3.71385667       4.58957792
         6    2       -1.60813706       4.64231039       1.96959692
         7    1       -1.60815314       6.49924569       2.61536983
         8    2       -1.60815314       6.49924569       4.58957792
         9    2       -3.21628216       7.42769941       1.96959692
        10    1       -3.21629824       9.28463471       2.61536983
        11    2       -3.21629824       9.28463471       4.58957792
        12    2       -4.82442726      10.21308843       1.96959692
        13    1       -4.82444334      12.07002373       2.61536983
        14    2       -4.82444334      12.07002373       4.58957792
        15    2       -6.43257236      12.99847745       1.96959692
        16    1        4.82442726       0.92846765       2.61536983
        17    2        4.82442726       0.92846765       4.58957792
        18    2        3.21629824       1.85692137       1.96959692
        19    1        3.21628216       3.71385667       2.61536983
        20    2        3.21628216       3.71385667       4.58957792
        21    2        1.60815314       4.64231039       1.96959692
        22    1        1.60813706       6.49924569       2.61536983
        23    2        1.60813706       6.49924569       4.58957792
        24    2        0.00000804       7.42769941       1.96959692
        25    1       -0.00000804       9.28463471       2.61536983
        26    2       -0.00000804       9.28463471       4.58957792
        27    2       -1.60813706      10.21308843       1.96959692
        28    1       -1.60815314      12.07002373       2.61536983
        29    2       -1.60815314      12.07002373       4.58957792
        30    2       -3.21628216      12.99847745       1.96959692
        31    1        6.43257236       3.71385667       2.61536983
        32    2        6.43257236       3.71385667       4.58957792
        33    2        4.82444334       4.64231039       1.96959692
        34    1        4.82442726       6.49924569       2.61536983
        35    2        4.82442726       6.49924569       4.58957792
        36    2        3.21629824       7.42769941       1.96959692
        37    1        3.21628216       9.28463471       2.61536983
        38    2        3.21628216       9.28463471       4.58957792
        39    2        1.60815314      10.21308843       1.96959692
        40    1        1.60813706      12.07002373       2.61536983
        41    2        1.60813706      12.07002373       4.58957792
        42    2        0.00000804      12.99847745       1.96959692
        43    1        8.04071746       0.92846765       2.61536983
        44    2        8.04071746       0.92846765       4.58957792
        45    2        6.43258844       1.85692137       1.96959692
        46    1        6.43257236       9.28463471       2.61536983
        47    2        6.43257236       9.28463471       4.58957792
        48    2        4.82444334      10.21308843       1.96959692
        49    1        4.82442726      12.07002373       2.61536983
        50    2        4.82442726      12.07002373       4.58957792
        51    2        3.21629824      12.99847745       1.96959692
        52    1       11.25700766       0.92846765       2.61536983
        53    2       11.25700766       0.92846765       4.58957792
        54    2        9.64887864       1.85692137       1.96959692
        55    1        9.64886256       3.71385667       2.61536983
        56    2        9.64886256       3.71385667       4.58957792
        57    2        8.04073354       4.64231039       1.96959692
        58    1        8.04071746       6.49924569       2.61536983
        59    2        8.04071746       6.49924569       4.58957792
        60    2        6.43258844       7.42769941       1.96959692
        61    1       12.86515276       3.71385667       2.61536983
        62    2       12.86515276       3.71385667       4.58957792
        63    2       11.25702374       4.64231039       1.96959692
        64    1       11.25700766       6.49924569       2.61536983
        65    2       11.25700766       6.49924569       4.58957792
        66    2        9.64887864       7.42769941       1.96959692
        67    1        9.64886256       9.28463471       2.61536983
        68    2        9.64886256       9.28463471       4.58957792
        69    2        8.04073354      10.21308843       1.96959692
        70    1        8.04071746      12.07002373       2.61536983
        71    2        8.04071746      12.07002373       4.58957792
        72    2        6.43258844      12.99847745       1.96959692
        73    1       14.47329786       0.92846765       2.61536983
        74    2       14.47329786       0.92846765       4.58957792
        75    2       12.86516884       1.85692137       1.96959692
