LAMMPS (29 Oct 2020)
OMP_NUM_THREADS environment is not set. Defaulting to 1 thread. (src/comm.cpp:94)
  using 1 OpenMP thread(s) per MPI task
# sample LAMMPS input script for thermal conductivity of Pb
# Muller-Plathe method via fix thermal_conductivity


# setup problem
variable    t equal 300
variable    dt equal 0.001

units		metal
boundary    p p p
atom_style	atomic

read_data   GaN.lmp
Reading data file ...
  triclinic box = (0.0000000 0.0000000 0.0000000) to (16.081451 13.926945 5.2399620) with tilt (-8.0407255 0.0000000 0.0000000)
  2 by 3 by 1 MPI processor grid
  reading atoms ...
  75 atoms
  read_data CPU = 0.001 seconds
replicate       63 7 1
Replicating atoms ...
  triclinic box = (0.0000000 0.0000000 0.0000000) to (1013.1314 97.488616 5.2399620) with tilt (-56.285079 0.0000000 0.0000000)
  6 by 1 by 1 MPI processor grid
  33075 atoms
  replicate CPU = 0.002 seconds


pair_style      tersoff
pair_coeff      * *  GaN-2007.tersoff.txt Ga N
Reading tersoff potential file GaN-2007.tersoff.txt with DATE: 2007-10-22

neighbor	2.0 bin
neigh_modify	 delay 0 every 1 check yes
timestep     ${dt}
timestep     0.001

# 1st equilibration run
velocity	all create $t 345352 mom yes rot yes dist gaussian
velocity	all create 300 345352 mom yes rot yes dist gaussian

fix		1 all nvt temp $t $t 10 drag 0.2
fix		1 all nvt temp 300 $t 10 drag 0.2
fix		1 all nvt temp 300 300 10 drag 0.2
thermo	 1000
run		400000
Neighbor list info ...
  update every 1 steps, delay 0 steps, check yes
  max neighbors/atom: 2000, page size: 100000
  master list distance cutoff = 5.1
  ghost atom cutoff = 5.1
  binsize = 2.55, bins = 420 39 3
  1 neighbor lists, perpetual/occasional/extra = 1 0 0
  (1) pair tersoff, perpetual
      attributes: full, newton on
      pair build: full/bin/atomonly
      stencil: full/bin/3d
      bin: standard
Per MPI rank memory allocation (min/avg/max) = 6.905 | 6.905 | 6.905 Mbytes
Step Temp E_pair E_mol TotEng Press 
       0          300   -101606.84            0   -100324.29   -37551.629 
    1000    222.33022   -101271.95            0   -100321.45   -265.62016 
    2000    214.74257    -101233.6            0   -100315.55    3270.0608 
    3000    217.03862   -101237.91            0   -100310.04    4930.6715 
    4000    222.03634   -101253.52            0   -100304.28    4418.0878 
    5000    221.06714   -101242.64            0   -100297.54    2549.3553 
    6000    220.18395   -101231.64            0   -100290.32    1040.9485 
    7000    222.12465   -101232.43            0   -100282.81   -602.61391 
    8000    223.49743    -101230.6            0   -100275.12   -580.90607 
    9000    222.48706    -101218.4            0   -100267.24   -696.19764 
   10000    224.05298   -101217.01            0   -100259.15   -265.50536 
   11000    225.71611   -101216.02            0   -100251.05   -94.119939 
   12000    226.05244   -101209.12            0   -100242.71    445.95055 
   13000    227.62842   -101207.45            0   -100234.31    963.61933 
   14000    229.10143   -101205.18            0   -100225.74     138.2612 
   15000    228.46299   -101193.82            0   -100217.11   -164.38824 
   16000    231.35534   -101197.53            0   -100208.45    226.31569 
   17000     231.9881   -101191.44            0   -100199.66   -486.93873 
   18000    231.75589   -101181.72            0   -100190.93    93.873777 
   19000    233.98867   -101182.45            0   -100182.11    73.289239 
   20000    234.32476   -101174.99            0   -100173.21   -120.61904 
   21000    235.26512   -101170.16            0   -100164.36   -256.47364 
   22000    235.95063    -101164.1            0   -100155.37   -272.56047 
   23000    236.56821   -101157.89            0   -100146.52    198.25287 
   24000    238.06842   -101155.31            0   -100137.53    201.36534 
   25000    238.44767   -101147.93            0   -100128.53   -504.57053 
   26000    241.11352   -101150.29            0   -100119.49    -267.7757 
   27000    242.91574    -101149.1            0    -100110.6   -509.11646 
   28000    243.90885   -101144.36            0   -100101.61   -419.14952 
   29000    244.69614   -101138.74            0   -100092.63   -148.61401 
   30000    244.51154   -101129.05            0   -100083.73   -227.12251 
   31000    245.43663   -101124.05            0   -100074.78   -638.77592 
   32000    247.05563   -101122.11            0   -100065.91   -795.27576 
   33000    247.99079   -101117.23            0   -100057.04   -905.53356 
   34000    249.57187   -101115.06            0    -100048.1   -491.81852 
   35000    251.57731   -101114.83            0    -100039.3   -776.57112 
   36000    250.85031   -101102.91            0   -100030.49   -172.36425 
   37000    251.33559   -101096.16            0   -100021.66   -380.74772 
   38000    253.21958   -101095.38            0   -100012.83   -724.78223 
   39000      254.374   -101091.82            0   -100004.34   -1280.8482 
   40000    254.52249   -101083.78            0   -99995.654   -1015.2693 
   41000    255.12706   -101077.87            0   -99987.162   -719.66915 
   42000    257.56602   -101079.85            0   -99978.718   -722.88541 
   43000    259.48794   -101079.77            0   -99970.422   -1118.7778 
   44000    259.40086   -101070.95            0   -99961.975   -1297.1857 
   45000    259.32541   -101062.39            0   -99953.735    -958.0611 
   46000    261.49892   -101063.53            0   -99945.585    -696.7457 
   47000    262.18661   -101058.41            0   -99937.526   -1076.8571 
   48000      262.243   -101050.42            0    -99929.29   -757.28998 
   49000    263.80497   -101049.06            0   -99921.251   -462.32712 
   50000    264.05728   -101042.13            0   -99913.243   -619.64728 
   51000    263.98379   -101033.88            0   -99905.305   -801.28681 
   52000    265.03907   -101030.54            0   -99897.455   -953.54569 
   53000      266.557   -101029.19            0   -99889.619   -595.82688 
   54000    267.40329   -101025.24            0   -99882.047   -471.49321 
   55000    269.74257   -101027.33            0   -99874.144   -823.56392 
   56000    270.08018   -101021.28            0   -99866.644   -813.35953 
   57000    269.97852   -101013.34            0    -99859.14   -742.71204 
   58000    270.86574   -101009.63            0   -99851.636   -684.05995 
   59000    273.49356   -101013.61            0   -99844.382   -748.14402 
   60000    273.03407   -101004.23            0   -99836.969   -648.55421 
   61000    275.27625   -101006.61            0   -99829.762   -1093.7425 
   62000    275.76845   -101001.62            0   -99822.668   -1356.5128 
   63000    277.28017   -101001.18            0   -99815.765   -929.40625 
   64000     275.0453   -100984.65            0   -99808.792   -1131.0981 
   65000    276.53507   -100984.07            0   -99801.842   -872.30572 
   66000    277.48243   -100981.69            0   -99795.416   -1279.2441 
   67000    278.16427   -100978.09            0     -99788.9   -721.51276 
   68000    281.16205   -100984.29            0   -99782.278   -726.85686 
   69000    280.96732   -100977.01            0   -99775.831   -1002.4812 
   70000    281.15291   -100971.28            0   -99769.311   -1371.4763 
   71000     282.6158    -100971.2            0   -99762.978    -923.3315 
   72000    283.55907    -100968.9            0   -99756.643    -958.3929 
   73000    283.23256   -100961.68            0   -99750.815    -1182.964 
   74000    285.03719   -100963.56            0   -99744.984   -1089.1122 
   75000    284.66649   -100956.15            0   -99739.163   -877.13455 
   76000    283.93933   -100947.32            0   -99733.438   -919.96233 
   77000    285.38763   -100947.67            0   -99727.594   -1223.6183 
   78000    287.94053   -100953.04            0   -99722.047   -1082.1187 
   79000    286.85134   -100943.18            0   -99716.847   -1024.6764 
   80000    288.96275   -100947.18            0   -99711.819   -956.15201 
   81000    288.82649   -100941.55            0   -99706.771   -1171.5984 
   82000     288.2936   -100934.21            0    -99701.71   -1325.4379 
   83000    289.51668   -100934.67            0   -99696.939   -995.15797 
   84000    289.07766   -100927.82            0   -99691.968   -1029.9796 
   85000    291.46447   -100933.27            0   -99687.212   -1579.4747 
   86000    292.05431   -100931.14            0   -99682.568   -1484.5936 
   87000    291.79602   -100925.44            0    -99677.97   -1583.1221 
   88000    290.77398   -100916.55            0   -99673.448   -1731.3335 
   89000    292.53633   -100919.79            0   -99669.149    -1401.784 
   90000    292.37141   -100915.02            0   -99665.084   -1284.2726 
   91000    293.53384   -100915.94            0   -99661.039   -1179.0684 
   92000    295.15258   -100918.67            0   -99656.853   -731.18608 
   93000    294.55869   -100912.43            0   -99653.152   -1409.7051 
   94000    295.27431   -100911.75            0   -99649.409   -1024.4231 
   95000    296.04916   -100911.44            0   -99645.787   -1416.3429 
   96000    295.17736   -100904.25            0   -99642.322   -1190.4232 
   97000      296.454   -100906.04            0   -99638.657    -1393.096 
   98000    295.28223   -100897.23            0   -99634.858   -1684.6158 
   99000     297.0175   -100901.52            0   -99631.728   -1821.9735 
  100000    298.06215   -100903.11            0   -99628.845   -1358.3957 
  101000    295.46905   -100888.86            0   -99625.681   -1481.2668 
  102000    298.32966   -100898.18            0   -99622.776   -1403.9638 
  103000    299.01694   -100898.07            0   -99619.731   -1319.9309 
  104000    297.68927   -100889.46            0   -99616.792   -1281.7624 
  105000    297.94783   -100888.06            0   -99614.293   -1738.5533 
  106000     298.7858   -100889.15            0   -99611.795   -1474.4267 
  107000    297.41534   -100881.31            0    -99609.82   -1179.7741 
  108000    299.70521   -100888.76            0   -99607.471   -1426.9757 
  109000    300.88152   -100891.71            0   -99605.397   -1314.1494 
  110000    300.49376      -100888            0   -99603.346   -1272.8295 
  111000    299.40527   -100881.46            0   -99601.456   -1342.4713 
  112000    300.95166   -100886.33            0   -99599.716   -1106.2131 
  113000    302.08595   -100889.56            0   -99598.098   -1078.5325 
  114000    300.28906   -100880.51            0   -99596.729   -1482.2461 
  115000    299.67803   -100876.52            0   -99595.352   -1158.9657 
  116000    301.38168   -100882.63            0   -99594.181   -1093.5858 
  117000     300.3887   -100877.33            0   -99593.123   -778.67738 
  118000    302.17724   -100884.05            0   -99592.193   -1358.3102 
  119000    300.61968   -100876.69            0   -99591.491   -1288.3099 
  120000    302.85501   -100885.33            0   -99590.579   -817.87178 
  121000    300.62743   -100874.87            0   -99589.645   -1196.5465 
  122000    301.26983   -100877.15            0    -99589.18   -1789.8709 
  123000    300.44492   -100873.25            0   -99588.806   -732.36225 
  124000    302.28776   -100880.73            0   -99588.408   -1254.5289 
  125000    302.00398   -100879.38            0   -99588.268   -1061.7983 
  126000    300.99174   -100875.17            0   -99588.383   -1137.4367 
  127000    301.74394    -100878.7            0   -99588.701   -1498.9377 
  128000    300.78982   -100874.73            0   -99588.805   -1478.1258 
  129000    301.44747   -100878.06            0   -99589.328   -1595.7412 
  130000    301.31685   -100877.86            0   -99589.681   -1650.3744 
  131000    299.46653   -100870.53            0   -99590.262   -1758.4067 
  132000    300.35789   -100874.74            0   -99590.667   -1336.5885 
  133000    300.03065   -100874.29            0   -99591.619    -980.3877 
  134000    299.79485   -100874.15            0   -99592.486   -1625.6226 
  135000    299.25252   -100872.46            0   -99593.109   -1753.6112 
  136000    300.54736   -100878.89            0   -99594.006   -1322.4246 
  137000    300.32942   -100878.82            0   -99594.862   -778.70062 
  138000    300.03407   -100878.51            0   -99595.822   -1176.9604 
  139000    300.64876   -100881.89            0   -99596.569   -1302.1263 
  140000     298.4989   -100873.43            0   -99597.305   -1575.6812 
  141000    300.59305   -100882.93            0   -99597.846    -1156.864 
  142000    299.99322   -100880.74            0   -99598.222   -1215.5834 
  143000    300.29431    -100882.3            0   -99598.497   -949.71315 
  144000     300.3706   -100883.34            0    -99599.21   -866.60562 
  145000    301.16507   -100887.21            0   -99599.679   -1432.2961 
  146000     299.7736   -100881.57            0   -99599.998   -1509.8546 
  147000    299.88495   -100882.42            0   -99600.364   -995.11995 
  148000    300.66374   -100886.16            0   -99600.782   -1329.4674 
  149000    301.69969    -100890.6            0    -99600.79   -1067.4322 
  150000    301.45742   -100889.39            0    -99600.61   -1161.8067 
  151000    301.23235   -100888.47            0   -99600.658   -1128.8023 
  152000    299.45245   -100880.91            0   -99600.701   -1583.0833 
  153000    298.99683   -100879.37            0   -99601.114   -1651.6695 
  154000    299.22288    -100880.4            0   -99601.176   -1596.9526 
  155000    299.85356   -100883.27            0   -99601.354   -1096.1042 
  156000    299.19402   -100880.34            0   -99601.238    -1434.031 
  157000    299.97384   -100883.84            0   -99601.411   -1300.8349 
  158000    300.92251   -100888.12            0   -99601.636   -1395.2703 
  159000    299.83098   -100883.53            0   -99601.706   -1945.1302 
  160000    299.04166   -100880.44            0   -99601.997   -1840.5709 
  161000    298.68292   -100879.04            0   -99602.123   -1483.5782 
  162000    298.28721   -100877.69            0   -99602.466   -1099.8614 
  163000    300.12138   -100885.47            0   -99602.409   -1455.5853 
  164000    300.11864   -100885.52            0   -99602.467   -1214.7854 
  165000    300.50514   -100887.22            0   -99602.513   -989.79008 
  166000     299.9323   -100884.68            0   -99602.427   -848.97051 
  167000    300.32783   -100886.49            0   -99602.542   -1030.0213 
  168000     299.6534   -100883.75            0   -99602.689   -1298.8083 
  169000    300.01241   -100885.34            0   -99602.744   -1217.3195 
  170000    300.19762   -100886.25            0   -99602.863   -1111.9998 
  171000    300.43021   -100887.28            0   -99602.898   -1153.8388 
  172000    300.65573    -100888.5            0   -99603.148   -1118.1264 
  173000    300.49523   -100887.95            0   -99603.286   -1347.4192 
  174000    299.73164   -100885.16            0   -99603.757   -1116.5052 
  175000    298.21223   -100879.06            0   -99604.157   -1292.0986 
  176000    299.85919   -100886.71            0   -99604.764   -838.52594 
  177000    300.18893   -100888.94            0   -99605.584   -901.29006 
  178000    300.78746   -100892.33            0   -99606.423   -748.37747 
  179000    299.18602   -100886.33            0   -99607.268   -1083.2163 
  180000    298.92678   -100885.99            0   -99608.036   -715.15372 
  181000    300.03043   -100891.59            0   -99608.911   -1281.5975 
  182000    298.93572   -100887.89            0   -99609.891   -700.63584 
  183000    298.87124   -100888.43            0   -99610.707   -1113.2324 
  184000    298.23464   -100886.65            0   -99611.647   -1139.2281 
  185000    298.61472   -100888.49            0   -99611.864   -1256.9458 
  186000    298.47217   -100888.76            0   -99612.743   -1195.4214 
  187000    298.33267   -100888.69            0   -99613.272   -597.00166 
  188000    297.88883    -100887.1            0   -99613.581   -994.72981 
  189000    299.29489   -100893.25            0   -99613.722   -1324.9151 
  190000    298.46922      -100890            0   -99613.999   -1363.5916 
  191000    299.87246   -100896.11            0   -99614.109   -1129.9806 
  192000    296.50482   -100881.73            0   -99614.131   -1374.2771 
  193000    300.09918   -100896.72            0   -99613.749   -1097.6321 
  194000    299.17284   -100892.24            0   -99613.236   -1325.1707 
  195000    299.39987   -100892.45            0    -99612.47   -1602.5374 
  196000    299.34441   -100891.68            0   -99611.939   -1750.4777 
  197000    298.34941   -100886.48            0   -99610.991   -1120.3549 
  198000    299.86378    -100892.2            0   -99610.235   -1243.7649 
  199000    299.01648   -100887.77            0   -99609.428   -1252.0837 
  200000    298.67748   -100885.35            0   -99608.463   -1373.4892 
  201000    298.27131   -100882.24            0    -99607.09   -692.29591 
  202000     300.0715   -100888.61            0   -99605.764   -830.45236 
  203000    300.61097   -100889.47            0   -99604.315   -1085.7566 
  204000    299.57541   -100883.35            0   -99602.622   -1409.7461 
  205000    299.57852   -100881.43            0   -99600.686   -1535.6918 
  206000     299.7269   -100880.16            0   -99598.779   -1728.4548 
  207000    300.67731   -100882.61            0   -99597.165   -1469.1617 
  208000    301.02295   -100882.17            0   -99595.254   -1077.5119 
  209000    300.19149   -100876.68            0    -99593.32   -954.35516 
  210000    300.88634   -100878.14            0   -99591.803   -883.29911 
  211000    303.10548   -100886.43            0   -99590.604   -750.27851 
  212000    299.28266   -100868.76            0    -99589.28   -694.08341 
  213000    301.03061   -100874.93            0   -99587.983   -1176.9672 
  214000    301.42595   -100875.74            0     -99587.1    -975.7987 
  215000    300.98531    -100873.2            0   -99586.442   -1302.6022 
  216000    303.33432   -100882.42            0   -99585.622   -839.49679 
  217000     302.4874   -100878.56            0   -99585.377   -1158.7372 
  218000    302.91812   -100879.98            0   -99584.963   -1124.8047 
  219000    301.63314   -100874.34            0   -99584.815   -811.90388 
  220000     299.9298   -100867.07            0   -99584.825   -1099.8402 
  221000    299.64891   -100866.16            0   -99585.111   -1112.6923 
  222000    301.94656   -100876.68            0   -99585.813   -986.65679 
  223000    301.36358   -100875.05            0   -99586.675   -1252.2805 
  224000     301.4465   -100876.21            0   -99587.483   -1346.6114 
  225000    300.91241   -100875.01            0   -99588.567   -1632.5442 
  226000    302.73528   -100884.16            0   -99589.922   -1479.5348 
  227000    301.34525    -100879.8            0   -99591.504   -1279.2758 
  228000    299.04802   -100871.22            0   -99592.744   -1220.4088 
  229000    300.21201   -100877.51            0    -99594.06   -968.82283 
  230000    300.56149   -100880.11            0   -99595.168   -994.62562 
  231000    300.39514   -100880.17            0   -99595.932   -843.33009 
  232000     302.4953   -100889.77            0   -99596.554   -697.75906 
  233000    302.05622   -100888.25            0   -99596.912   -1067.7045 
  234000    300.16734   -100880.59            0   -99597.326   -1131.1085 
  235000    300.32459   -100881.57            0   -99597.638    -1085.866 
  236000    299.28953   -100877.45            0   -99597.945   -1173.7502 
  237000    300.93649   -100884.63            0   -99598.084   -1037.2723 
  238000    302.04374   -100889.57            0   -99598.288   -1247.9149 
  239000    300.74803   -100884.24            0   -99598.497   -889.21514 
  240000    299.81224   -100880.21            0   -99598.471   -1599.8854 
  241000    299.47162    -100878.6            0   -99598.309   -1383.3613 
  242000    300.44813   -100882.85            0   -99598.387   -1271.8353 
  243000     302.7141   -100892.69            0   -99598.541   -1029.8816 
  244000    299.55613   -100879.04            0   -99598.389   -1128.5525 
  245000    299.85721   -100880.39            0   -99598.457   -1318.3063 
  246000    299.96367   -100880.65            0   -99598.256   -1553.2224 
  247000     300.2518   -100882.04            0   -99598.422    -1266.943 
  248000    300.88174   -100884.63            0   -99598.314   -864.11895 
  249000    301.02308   -100885.13            0   -99598.208   -869.73585 
  250000    299.77571   -100879.97            0   -99598.383   -1030.3387 
  251000    301.09625   -100885.36            0   -99598.127   -1056.1746 
  252000    301.86328   -100888.56            0   -99598.052   -1124.1175 
  253000    302.59319   -100891.67            0   -99598.042   -1461.3052 
  254000    301.32999   -100886.46            0   -99598.234   -946.19529 
  255000    300.23032   -100882.01            0   -99598.482    -1222.476 
  256000    299.66204   -100879.74            0   -99598.642   -1321.8786 
  257000    298.94502   -100876.68            0   -99598.642   -1132.4696 
  258000    301.03055   -100886.17            0   -99599.224   -1044.4554 
  259000    300.94272   -100885.97            0   -99599.391   -1038.8982 
  260000    301.22181   -100887.44            0   -99599.669   -911.75683 
  261000    300.74865    -100885.6            0   -99599.852   -1119.0868 
  262000    301.08095   -100887.36            0   -99600.193   -1220.7656 
  263000    298.75306   -100877.95            0   -99600.739   -1156.3711 
  264000    300.03313   -100884.16            0   -99601.474   -1006.9899 
  265000    299.13663   -100880.93            0    -99602.08   -1078.4159 
  266000     299.2875   -100882.33            0    -99602.83   -1149.5752 
  267000    300.84402   -100889.84            0   -99603.685    -902.0074 
  268000    298.94273   -100882.36            0   -99604.333   -534.61001 
  269000    297.90638   -100878.46            0   -99604.862   -1039.3388 
  270000    300.62955   -100890.86            0   -99605.627   -1016.0764 
  271000     299.2072   -100885.38            0   -99606.225   -727.84774 
  272000    299.54317   -100887.37            0   -99606.778   -1028.3906 
  273000    297.50955   -100879.43            0    -99607.53   -1464.3216 
  274000    298.24219   -100883.06            0   -99608.033   -1470.4383 
  275000    299.80749   -100890.08            0   -99608.354    -1182.251 
  276000      299.191   -100887.99            0   -99608.904   -1297.0304 
  277000    298.67803   -100886.39            0   -99609.497   -805.08331 
  278000    299.60181   -100890.63            0   -99609.791   -855.09579 
  279000    300.74107   -100895.95            0    -99610.24   -814.57553 
  280000    299.28709   -100890.03            0   -99610.536   -930.51047 
  281000     299.3232   -100890.41            0   -99610.759   -1076.2041 
  282000    298.89839   -100888.51            0   -99610.672   -1299.8611 
  283000    299.95497   -100893.31            0   -99610.955   -864.04661 
  284000    299.80007   -100892.74            0   -99611.045   -831.93536 
  285000    298.04695    -100885.3            0   -99611.106   -904.44157 
  286000    298.38732   -100886.46            0   -99610.807   -1337.7513 
  287000    298.19326   -100885.59            0   -99610.768   -1263.6856 
  288000    300.40861   -100894.79            0   -99610.503    -1079.162 
  289000    300.68172   -100895.68            0   -99610.223   -845.75472 
  290000     298.4321   -100885.71            0   -99609.873   -1005.0335 
  291000    299.01734   -100888.12            0   -99609.772   -664.68441 
  292000    299.31974   -100889.18            0   -99609.539   -695.86202 
  293000    298.64311    -100885.9            0   -99609.158   -1008.7594 
  294000    298.34875   -100884.01            0   -99608.526   -861.97119 
  295000    298.86757   -100885.61            0   -99607.905   -1008.5112 
  296000    299.82014   -100889.22            0   -99607.445   -920.89217 
  297000    300.97343   -100893.21            0   -99606.508    -942.9712 
  298000     301.1206   -100892.99            0   -99605.653   -921.15145 
  299000    299.01884   -100883.14            0   -99604.787    -1129.613 
  300000    298.99501   -100881.99            0    -99603.74   -895.07086 
  301000      299.088   -100881.31            0   -99602.668   -1164.9644 
  302000    299.41975   -100881.42            0   -99601.353   -1114.9125 
  303000    299.96459    -100882.8            0   -99600.411   -1435.8128 
  304000    300.69141   -100885.11            0   -99599.614   -1041.8753 
  305000    298.66487   -100875.06            0   -99598.228   -1075.7146 
  306000    299.61462   -100877.92            0   -99597.024   -1727.5168 
  307000     300.5446   -100880.64            0   -99595.764   -1472.8266 
  308000    301.38909   -100883.16            0   -99594.681   -1235.9227 
  309000    302.36697   -100886.27            0   -99593.604   -1229.9053 
  310000    300.73333   -100878.06            0   -99592.383   -1130.6859 
  311000    302.21928   -100883.58            0   -99591.549   -851.81157 
  312000    302.09496   -100881.99            0   -99590.492   -1262.6925 
  313000    300.71966   -100875.41            0   -99589.793   -1011.1605 
  314000     301.8155   -100879.32            0    -99589.01   -1370.1444 
  315000    302.54908   -100882.06            0   -99588.622   -1115.2007 
  316000    302.07146    -100879.9            0   -99588.499   -1131.4388 
  317000    303.02559   -100883.76            0   -99588.282   -1084.2796 
  318000    301.50781   -100877.23            0   -99588.241   -1206.1568 
  319000    301.92539   -100879.04            0   -99588.266   -953.75646 
  320000    302.25383   -100880.73            0    -99588.55   -1216.2475 
  321000    301.73425   -100879.13            0   -99589.171   -1306.4767 
  322000    301.49191   -100879.09            0   -99590.165   -978.83404 
  323000    301.33924    -100879.2            0   -99590.926   -1518.2568 
  324000    301.93639   -100883.16            0    -99592.34   -1197.8651 
  325000    300.14447   -100876.38            0   -99593.219   -1716.3649 
  326000    300.68962   -100879.99            0   -99594.496   -1434.4579 
  327000    301.41848   -100884.19            0   -99595.581   -1065.2005 
  328000     301.6779   -100886.52            0   -99596.801   -826.47121 
  329000    301.17207   -100885.41            0   -99597.854   -1145.0804 
  330000    299.04442   -100876.84            0   -99598.381   -1332.1154 
  331000    300.26868   -100882.65            0   -99598.956   -1258.4433 
  332000    299.27919   -100879.34            0   -99599.874     -1187.91 
  333000    300.49263   -100885.18            0   -99600.533   -949.43082 
  334000    300.79916   -100886.79            0   -99600.831   -1248.3434 
  335000    299.78662   -100882.57            0   -99600.941   -1362.4929 
  336000    298.84262   -100878.75            0   -99601.156   -1222.8007 
  337000    299.50551   -100881.81            0   -99601.377   -1178.3053 
  338000     300.6135   -100886.64            0   -99601.476   -1022.9531 
  339000    300.44738   -100885.82            0   -99601.358   -1384.7743 
  340000    298.54167   -100877.59            0   -99601.282   -1065.0479 
  341000    299.26896   -100880.58            0   -99601.158    -1114.131 
  342000    301.20575   -100888.71            0   -99601.007   -1091.0498 
  343000    301.52576   -100889.87            0   -99600.803   -933.50379 
  344000    299.81485   -100882.71            0   -99600.957   -822.64176 
  345000    300.49909   -100885.23            0   -99600.555   -884.35666 
  346000    301.29782   -100888.71            0   -99600.615   -1302.8697 
  347000    300.53875   -100885.15            0   -99600.301   -994.42638 
  348000    299.72029   -100881.41            0   -99600.059   -1146.9173 
  349000    300.77377   -100885.85            0   -99600.001   -1431.5467 
  350000    299.91507   -100881.96            0   -99599.781   -1247.7779 
  351000    301.57074   -100889.04            0    -99599.78   -1617.0733 
  352000    301.70241   -100889.54            0   -99599.716   -1504.1901 
  353000    301.53334   -100888.58            0   -99599.475   -1106.2153 
  354000    299.96484   -100881.72            0   -99599.325   -1187.5313 
  355000    299.41956   -100879.77            0   -99599.706   -1091.9119 
  356000    301.78744   -100889.86            0   -99599.678   -527.38138 
  357000    299.96642   -100882.15            0   -99599.748   -1031.7326 
  358000    301.25857   -100887.96            0   -99600.033   -1078.2942 
  359000    299.53611   -100880.62            0   -99600.061   -1187.1359 
  360000    298.70567   -100877.43            0   -99600.414    -1057.796 
  361000    300.14403   -100883.82            0   -99600.662   -1183.7846 
  362000    300.01971   -100883.78            0   -99601.148   -914.34081 
  363000    298.57343   -100878.13            0   -99601.682   -1105.9435 
  364000    298.60437   -100878.68            0   -99602.105    -1118.359 
  365000    300.36962   -100886.77            0   -99602.647   -1528.2984 
  366000    299.62008   -100884.33            0   -99603.412   -922.44048 
  367000    299.71888    -100885.3            0   -99603.953   -1239.0281 
  368000    298.84304   -100882.56            0    -99604.96   -1364.5348 
  369000    299.18727   -100885.12            0   -99606.045   -962.78758 
  370000    299.07311   -100885.54            0   -99606.958   -1193.2167 
  371000    298.80467   -100885.22            0   -99607.788   -982.92044 
  372000    299.99969   -100891.13            0   -99608.584   -680.79629 
  373000    299.68234   -100890.53            0   -99609.342   -1010.0245 
  374000    300.78773   -100895.83            0   -99609.921   -1322.1117 
  375000    300.40845   -100894.78            0    -99610.49   -1069.2753 
  376000     296.9252   -100879.91            0   -99610.512   -991.49859 
  377000    299.61105   -100891.48            0   -99610.599   -1241.6408 
  378000    298.96062   -100888.93            0   -99610.832   -1149.1643 
  379000    299.53864   -100891.48            0   -99610.904   -1219.3285 
  380000    298.08161   -100885.13            0   -99610.786   -1328.7698 
  381000     296.8395   -100879.45            0   -99610.415   -1284.8691 
  382000    299.96847   -100892.56            0   -99610.153   -1419.9184 
  383000    299.04972   -100888.42            0   -99609.935   -1285.6315 
  384000    298.80302   -100887.01            0   -99609.586    -1548.324 
  385000    299.16223   -100888.14            0   -99609.181   -1014.1759 
  386000    299.56342   -100889.22            0   -99608.542   -915.19482 
  387000    299.90775   -100890.24            0   -99608.087   -1020.1612 
  388000    298.86863   -100884.87            0    -99607.16    -1248.206 
  389000    298.67067   -100883.04            0    -99606.18   -1246.4441 
  390000    300.33211   -100889.25            0   -99605.288    -1193.036 
  391000    301.51818   -100893.37            0   -99604.332    -1083.975 
  392000    299.77194   -100885.01            0   -99603.438   -837.39631 
  393000    298.99864   -100880.65            0    -99602.39   -1184.5262 
  394000     301.6603   -100890.71            0    -99601.07   -1271.3949 
  395000    299.31384   -100879.61            0   -99599.994   -1512.2005 
  396000    301.86296   -100888.89            0   -99598.384   -1022.8907 
  397000    300.45863   -100881.37            0   -99596.864    -1223.203 
  398000    302.00006    -100886.3            0   -99595.203   -1082.0945 
  399000    300.06372   -100876.44            0   -99593.625   -1062.4903 
  400000    302.25407   -100884.46            0   -99592.274   -1294.6811 
Loop time of 5963.43 on 6 procs for 400000 steps with 33075 atoms

Performance: 5.795 ns/day, 4.141 hours/ns, 67.075 timesteps/s
99.3% CPU use with 6 MPI tasks x 1 OpenMP threads

MPI task timing breakdown:
Section |  min time  |  avg time  |  max time  |%varavg| %total
---------------------------------------------------------------
Pair    | 5198.3     | 5216.7     | 5241.2     |  22.3 | 87.48
Neigh   | 66.445     | 67.49      | 67.912     |   6.1 |  1.13
Comm    | 519.07     | 549.09     | 572        |  91.1 |  9.21
Output  | 0.017086   | 0.017828   | 0.02071    |   1.0 |  0.00
Modify  | 71.461     | 77.742     | 84.95      |  62.8 |  1.30
Other   |            | 52.42      |            |       |  0.88

Nlocal:        5512.50 ave        5528 max        5497 min
Histogram: 2 1 0 0 0 0 0 0 1 2
Nghost:        13905.7 ave       14106 max       13793 min
Histogram: 1 1 1 1 1 0 0 0 0 1
Neighs:        0.00000 ave           0 max           0 min
Histogram: 6 0 0 0 0 0 0 0 0 0
FullNghs:     178119.0 ave      178696 max      177389 min
Histogram: 1 1 0 0 1 0 0 0 2 1

Total # of neighbors = 1068712
Ave neighs/atom = 32.311776
Neighbor list builds = 6419
Dangerous builds = 0

velocity	all scale $t
velocity	all scale 300

unfix		1

# 2nd equilibration run

compute		ke all ke/atom
variable	temp atom c_ke/(1.5*8.617e-5)

fix		1 all nve

compute   layers all chunk/atom bin/1d x lower 0.05 units reduced
fix		2 all ave/chunk 10 100 1000 layers v_temp file profile1.mp

fix		3 all thermal/conductivity 400 x 20

variable        tdiff equal f_2[16][3]-f_2[1][3]
thermo_style	custom step temp epair etotal lx ly lz f_3 v_tdiff

thermo		2000
run		800000
Per MPI rank memory allocation (min/avg/max) = 7.406 | 7.406 | 7.406 Mbytes
Step Temp E_pair TotEng Lx Ly Lz f_3 v_tdiff 
  400000          300   -100884.46    -99601.91    1013.1314    97.488616     5.239962            0            0 
  402000    299.40727   -100881.37   -99601.364    1013.1314    97.488616     5.239962   0.86511473   0.66959149 
  404000    300.24233   -100883.65   -99600.068    1013.1314    97.488616     5.239962     1.839048   -1.0600079 
  406000    300.14983   -100882.42   -99599.239    1013.1314    97.488616     5.239962    2.8686644  0.093223942 
  408000    299.68386   -100879.76   -99598.571    1013.1314    97.488616     5.239962    3.6350887    4.2120416 
  410000    299.84025   -100879.73   -99597.864    1013.1314    97.488616     5.239962    4.5325832    1.6003829 
  412000    299.05356   -100875.39   -99596.889    1013.1314    97.488616     5.239962     5.830434    2.9370491 
  414000    300.66438   -100881.46   -99596.075    1013.1314    97.488616     5.239962    6.8188336    1.4203667 
  416000    301.50861   -100884.42   -99595.425    1013.1314    97.488616     5.239962    8.1243442    4.0583225 
  418000    300.01511   -100877.09   -99594.478    1013.1314    97.488616     5.239962    8.9542739    4.5308205 
  420000    300.27991   -100877.22   -99593.476    1013.1314    97.488616     5.239962      10.1805    5.6898207 
  422000     302.1806   -100884.82   -99592.948    1013.1314    97.488616     5.239962    11.201908    10.001874 
  424000    300.76545   -100877.61   -99591.789    1013.1314    97.488616     5.239962    12.201691    14.318112 
  426000    300.90273    -100877.3   -99590.893    1013.1314    97.488616     5.239962    13.150365    10.087949 
  428000    300.80252   -100875.98   -99590.006    1013.1314    97.488616     5.239962    14.230133    6.0520043 
  430000    301.68753   -100879.07   -99589.308    1013.1314    97.488616     5.239962    15.141729    6.5128706 
  432000     302.1582   -100880.44   -99588.666    1013.1314    97.488616     5.239962    15.944587    8.4659739 
  434000    301.61138   -100877.45   -99588.016    1013.1314    97.488616     5.239962    16.937956    11.893051 
  436000     300.8228   -100873.02   -99586.958    1013.1314    97.488616     5.239962    17.971944    13.157964 
  438000    301.80926   -100876.48   -99586.204    1013.1314    97.488616     5.239962     18.79841    10.568272 
  440000    302.94264   -100880.29   -99585.169    1013.1314    97.488616     5.239962    19.603542    9.5480334 
  442000    302.10997   -100875.99   -99584.424    1013.1314    97.488616     5.239962    20.467739    8.7287811 
  444000    303.27014   -100880.28   -99583.758    1013.1314    97.488616     5.239962    21.252895     4.379408 
  446000    302.97858   -100878.12   -99582.842    1013.1314    97.488616     5.239962    22.296706    10.062972 
  448000    303.20639   -100878.46   -99582.207    1013.1314    97.488616     5.239962    23.243311     9.043918 
  450000    303.19615   -100877.79   -99581.583    1013.1314    97.488616     5.239962    24.320325    7.5369115 
  452000    302.13204   -100872.29   -99580.631    1013.1314    97.488616     5.239962    25.302454    9.9127918 
  454000    301.64219    -100869.2   -99579.638    1013.1314    97.488616     5.239962    26.362057    11.328102 
  456000    302.84003    -100873.7   -99579.009    1013.1314    97.488616     5.239962    27.245878    15.610059 
  458000    302.34418   -100870.48   -99577.914    1013.1314    97.488616     5.239962    28.065613    12.895177 
  460000    302.10129   -100868.61   -99577.085    1013.1314    97.488616     5.239962    28.828695    11.758718 
  462000    302.75825   -100870.55   -99576.217    1013.1314    97.488616     5.239962    29.820712    8.7957719 
  464000    302.38865   -100868.44   -99575.682    1013.1314    97.488616     5.239962    30.606819    10.484222 
  466000    304.77731   -100877.58   -99574.616    1013.1314    97.488616     5.239962     31.43768    12.156094 
  468000    302.37614   -100866.29   -99573.591    1013.1314    97.488616     5.239962    32.318966     12.46307 
  470000    302.05894   -100863.88   -99572.531    1013.1314    97.488616     5.239962    33.236696    13.703552 
  472000    302.47088   -100864.39   -99571.278    1013.1314    97.488616     5.239962     33.91454    3.9177631 
  474000    303.78969    -100868.9   -99570.156    1013.1314    97.488616     5.239962    34.753699    6.8542275 
  476000    302.88703    -100864.5   -99569.612    1013.1314    97.488616     5.239962    35.544809    14.575644 
  478000    303.93172   -100868.02    -99568.67    1013.1314    97.488616     5.239962    36.557846     17.63324 
  480000    303.91577   -100867.21   -99567.923    1013.1314    97.488616     5.239962    37.614074    17.954805 
  482000    304.19156   -100867.54   -99567.074    1013.1314    97.488616     5.239962    38.573605    16.018216 
  484000    303.84174   -100865.01   -99566.039    1013.1314    97.488616     5.239962    39.442162    21.808333 
  486000    304.35365   -100866.12    -99564.96    1013.1314    97.488616     5.239962    40.347131     18.98682 
  488000     304.6399   -100866.49   -99564.105    1013.1314    97.488616     5.239962    41.369741    17.633988 
  490000     303.8486   -100862.39   -99563.395    1013.1314    97.488616     5.239962    42.455501    14.842338 
  492000    303.17641   -100858.49   -99562.369    1013.1314    97.488616     5.239962    43.133838    16.480941 
  494000    304.32652   -100862.85    -99561.81    1013.1314    97.488616     5.239962    43.991277    14.625719 
  496000    304.83637    -100864.6   -99561.383    1013.1314    97.488616     5.239962    45.234562    19.556656 
  498000    303.49959   -100858.39   -99560.879    1013.1314    97.488616     5.239962    46.178287    16.712115 
  500000    304.69139   -100862.03   -99559.427    1013.1314    97.488616     5.239962    47.074907     21.15139 
  502000    307.23973   -100871.86   -99558.362    1013.1314    97.488616     5.239962     47.78638    21.132789 
  504000    305.80279   -100864.76   -99557.411    1013.1314    97.488616     5.239962    48.814882    24.114711 
  506000    304.73773   -100859.98   -99557.179    1013.1314    97.488616     5.239962    49.364546    22.671348 
  508000    306.94302   -100868.85   -99556.618    1013.1314    97.488616     5.239962    50.290704     24.38623 
  510000    305.39956   -100861.37   -99555.744    1013.1314    97.488616     5.239962    51.328523    23.996381 
  512000    306.48921   -100865.07   -99554.781    1013.1314    97.488616     5.239962    52.359126    27.122487 
  514000    306.28937   -100863.16   -99553.727    1013.1314    97.488616     5.239962    53.243111    25.315377 
  516000    306.07277   -100861.25   -99552.738    1013.1314    97.488616     5.239962    53.944795    23.014693 
  518000    304.93803   -100855.73   -99552.075    1013.1314    97.488616     5.239962    54.973874    19.809377 
  520000    305.91843   -100859.13   -99551.279    1013.1314    97.488616     5.239962     56.06612    21.585699 
  522000    303.74748   -100849.04    -99550.47    1013.1314    97.488616     5.239962    56.813938     19.62155 
  524000    306.55072   -100860.21   -99549.655    1013.1314    97.488616     5.239962    57.781769    19.515446 
  526000    307.78154    -100864.8   -99548.986    1013.1314    97.488616     5.239962     58.66565    19.431634 
  528000    304.54002   -100849.85   -99547.898    1013.1314    97.488616     5.239962    59.325881    23.860329 
  530000    306.38365   -100856.93   -99547.095    1013.1314    97.488616     5.239962    60.224527     25.06902 
  532000    307.99082   -100862.45    -99545.74    1013.1314    97.488616     5.239962    61.056081    19.053685 
  534000    305.69911   -100851.86   -99544.947    1013.1314    97.488616     5.239962    61.983407    22.681876 
  536000    306.89861    -100856.2   -99544.164    1013.1314    97.488616     5.239962    62.877757    22.469447 
  538000    307.03122   -100855.65   -99543.043    1013.1314    97.488616     5.239962    63.770004    23.701289 
  540000    306.87151   -100854.28   -99542.358    1013.1314    97.488616     5.239962    64.706619    21.449343 
  542000    305.44758   -100847.55   -99541.717    1013.1314    97.488616     5.239962    65.687825    30.559879 
  544000    307.37623   -100854.65   -99540.566    1013.1314    97.488616     5.239962    66.553768    25.959781 
  546000    307.42168   -100853.71   -99539.441    1013.1314    97.488616     5.239962    67.466873    24.672595 
  548000    309.20116   -100860.36   -99538.476    1013.1314    97.488616     5.239962    68.141698    28.046567 
  550000    307.73278   -100853.16   -99537.553    1013.1314    97.488616     5.239962    69.151171    25.184271 
  552000    308.11698   -100854.07   -99536.819    1013.1314    97.488616     5.239962    70.088411    22.431747 
  554000    307.64269   -100851.03   -99535.811    1013.1314    97.488616     5.239962    70.718525    25.118056 
  556000    308.98715   -100855.21    -99534.24    1013.1314    97.488616     5.239962    71.416231    26.451051 
  558000    308.22425   -100850.83   -99533.124    1013.1314    97.488616     5.239962    72.445074    26.107482 
  560000    308.33976   -100850.39   -99532.193    1013.1314    97.488616     5.239962    73.160334    26.748464 
  562000    307.40069   -100845.14   -99530.957    1013.1314    97.488616     5.239962    73.958864    30.122491 
  564000    307.46822   -100844.35   -99529.875    1013.1314    97.488616     5.239962    74.886786     25.38864 
  566000    308.26817   -100846.98   -99529.085    1013.1314    97.488616     5.239962    75.698011    34.256458 
  568000    307.21023   -100841.53   -99528.158    1013.1314    97.488616     5.239962    76.480762    33.851574 
  570000    307.91485    -100843.6   -99527.214    1013.1314    97.488616     5.239962    77.353953    33.184689 
  572000    308.77746   -100846.19   -99526.121    1013.1314    97.488616     5.239962    78.453033    30.931447 
  574000    308.30414   -100843.53   -99525.486    1013.1314    97.488616     5.239962    79.360103    33.210075 
  576000    309.00446   -100845.76   -99524.717    1013.1314    97.488616     5.239962    80.181796    27.656082 
  578000    308.72949   -100843.68   -99523.815    1013.1314    97.488616     5.239962    81.208119    30.004911 
  580000    308.53372   -100842.09   -99523.065    1013.1314    97.488616     5.239962    82.005809    35.697531 
  582000    310.27828   -100848.78    -99522.29    1013.1314    97.488616     5.239962    82.832129    29.190914 
  584000    309.56152   -100844.74   -99521.317    1013.1314    97.488616     5.239962    83.716036     30.55347 
  586000     309.2502   -100842.29   -99520.197    1013.1314    97.488616     5.239962    84.632244    34.487805 
  588000    310.48029   -100846.49    -99519.14    1013.1314    97.488616     5.239962    85.462137    28.544591 
  590000    308.33065   -100836.51   -99518.348    1013.1314    97.488616     5.239962    86.383468    23.944751 
  592000    310.57874   -100845.41   -99517.642    1013.1314    97.488616     5.239962    87.204097    23.075213 
  594000    309.59761   -100840.55   -99516.974    1013.1314    97.488616     5.239962    87.993017    24.311452 
  596000    307.41067   -100830.22   -99515.991    1013.1314    97.488616     5.239962    88.694959    27.851426 
  598000    309.44039   -100837.63   -99514.722    1013.1314    97.488616     5.239962    89.709679    33.039609 
  600000     309.9357   -100838.97   -99513.948    1013.1314    97.488616     5.239962    90.421739    41.170103 
  602000    311.07657   -100842.79   -99512.895    1013.1314    97.488616     5.239962    91.404565    40.504652 
  604000    308.16493   -100829.34   -99511.886    1013.1314    97.488616     5.239962    92.549674    38.092142 
  606000     310.2617   -100837.62   -99511.203    1013.1314    97.488616     5.239962    93.345431    40.240132 
  608000    310.52782   -100837.85   -99510.295    1013.1314    97.488616     5.239962    94.028825    34.864464 
  610000    308.78798   -100829.37   -99509.259    1013.1314    97.488616     5.239962    94.607125    38.414602 
  612000    311.43036   -100839.54   -99508.131    1013.1314    97.488616     5.239962    95.542603    33.777104 
  614000    309.65213   -100830.74   -99506.931    1013.1314    97.488616     5.239962    96.331021     33.70125 
  616000    310.28048   -100832.48   -99505.985    1013.1314    97.488616     5.239962    97.286221    35.301058 
  618000    311.54247   -100836.82   -99504.933    1013.1314    97.488616     5.239962    98.058184    35.218979 
  620000    310.84594   -100833.03   -99504.122    1013.1314    97.488616     5.239962    98.959023    31.049229 
  622000    309.14125   -100824.83   -99503.201    1013.1314    97.488616     5.239962    99.797453    28.096622 
  624000    311.63405   -100834.42    -99502.14    1013.1314    97.488616     5.239962    100.87592    34.569991 
  626000    312.56997   -100838.03   -99501.742    1013.1314    97.488616     5.239962    101.64348    31.769266 
  628000    311.97946   -100834.38   -99500.619    1013.1314    97.488616     5.239962    102.54135     34.28048 
  630000    311.37959   -100830.67   -99499.471    1013.1314    97.488616     5.239962    103.40665    35.081825 
  632000    311.51966   -100830.32    -99498.53    1013.1314    97.488616     5.239962    104.17691    38.746582 
  634000    311.60928   -100829.55   -99497.377    1013.1314    97.488616     5.239962    104.96177    33.952201 
  636000    311.12745   -100826.53   -99496.409    1013.1314    97.488616     5.239962    105.82514     31.91478 
  638000    312.37033   -100830.94   -99495.509    1013.1314    97.488616     5.239962    106.83854    31.887285 
  640000     311.8746   -100827.87   -99494.559    1013.1314    97.488616     5.239962    107.95571    33.519636 
  642000    311.61154   -100825.92   -99493.736    1013.1314    97.488616     5.239962    108.95848    35.962537 
  644000    310.68368    -100821.2   -99492.984    1013.1314    97.488616     5.239962    109.75651     29.42695 
  646000    311.18476   -100822.33   -99491.967    1013.1314    97.488616     5.239962    110.72024    31.899307 
  648000    313.64222   -100831.74   -99490.869    1013.1314    97.488616     5.239962    111.82823    34.962797 
  650000    311.94902   -100823.46   -99489.835    1013.1314    97.488616     5.239962    112.72213    32.522977 
  652000    313.57758   -100829.56   -99488.968    1013.1314    97.488616     5.239962    113.80126    37.149753 
  654000    314.35393   -100832.06   -99488.154    1013.1314    97.488616     5.239962     114.9437    31.340055 
  656000    314.86564   -100832.93   -99486.835    1013.1314    97.488616     5.239962    115.85322    32.052131 
  658000    314.68264   -100830.77   -99485.456    1013.1314    97.488616     5.239962    116.90903    26.901589 
  660000    313.94545   -100826.36   -99484.196    1013.1314    97.488616     5.239962    117.65373    35.198411 
  662000    313.93764   -100825.56   -99483.429    1013.1314    97.488616     5.239962    118.47938    39.957909 
  664000    314.55328   -100827.19   -99482.432    1013.1314    97.488616     5.239962    119.34181    42.173645 
  666000    312.97285   -100819.63    -99481.62    1013.1314    97.488616     5.239962    120.50975    42.383816 
  668000    313.75333   -100821.58    -99480.24    1013.1314    97.488616     5.239962    121.52495    45.623606 
  670000    314.11867   -100822.14   -99479.233    1013.1314    97.488616     5.239962    122.26776    38.788592 
  672000    313.83237   -100819.59   -99477.912    1013.1314    97.488616     5.239962    123.25139    40.779729 
  674000    313.17142   -100815.47   -99476.615    1013.1314    97.488616     5.239962    124.06891    43.594118 
  676000    313.36995    -100815.4   -99475.695    1013.1314    97.488616     5.239962    125.03337     38.42539 
  678000    313.43707   -100814.23   -99474.236    1013.1314    97.488616     5.239962    126.04993    40.904783 
  680000    314.68975   -100818.31   -99472.967    1013.1314    97.488616     5.239962    127.11999    41.785653 
  682000    316.22454   -100823.67   -99471.762    1013.1314    97.488616     5.239962    128.03707    39.547898 
  684000    313.24456   -100809.69   -99470.525    1013.1314    97.488616     5.239962     128.9137     38.34334 
  686000    313.30846   -100808.88    -99469.44    1013.1314    97.488616     5.239962    129.95513    40.566005 
  688000    315.57667   -100817.61   -99468.469    1013.1314    97.488616     5.239962    131.06172    37.901227 
  690000    316.51219   -100820.91   -99467.768    1013.1314    97.488616     5.239962    132.04192    38.831551 
  692000    315.49121   -100815.39   -99466.619    1013.1314    97.488616     5.239962    132.91812    41.649842 
  694000    315.29982   -100813.44    -99465.49    1013.1314    97.488616     5.239962    133.86214     44.43764 
  696000    314.85093   -100810.55   -99464.513    1013.1314    97.488616     5.239962    135.06551    41.493788 
  698000    315.44004      -100812   -99463.447    1013.1314    97.488616     5.239962    135.94499    42.965813 
  700000    314.90351   -100808.49   -99462.226    1013.1314    97.488616     5.239962    136.68788    43.344365 
  702000    315.82995   -100811.59   -99461.365    1013.1314    97.488616     5.239962    137.23049    44.437644 
  704000    315.92688   -100811.25   -99460.615    1013.1314    97.488616     5.239962    137.96069    45.211486 
  706000    316.28755    -100811.7   -99459.524    1013.1314    97.488616     5.239962     138.9582    43.447935 
  708000     316.6307   -100812.09   -99458.443    1013.1314    97.488616     5.239962    139.63967    39.833322 
  710000    317.17576   -100813.57   -99457.592    1013.1314    97.488616     5.239962    140.57151     40.17584 
  712000    316.89885   -100810.99   -99456.203    1013.1314    97.488616     5.239962    141.32344    42.004057 
  714000    318.25256   -100815.89   -99455.315    1013.1314    97.488616     5.239962    142.29832    46.365082 
  716000    315.91079   -100804.59   -99454.023    1013.1314    97.488616     5.239962    143.08304    43.326856 
  718000    317.27688   -100809.47   -99453.062    1013.1314    97.488616     5.239962    143.99205    44.302645 
  720000    315.80545   -100802.45   -99452.334    1013.1314    97.488616     5.239962    144.80791     40.39927 
  722000    318.11399   -100811.31   -99451.327    1013.1314    97.488616     5.239962    145.75998    45.919045 
  724000    315.96104    -100801.7   -99450.922    1013.1314    97.488616     5.239962    146.44933    50.612126 
  726000    317.35437   -100806.22   -99449.487    1013.1314    97.488616     5.239962    147.38827    49.616603 
  728000    318.82539   -100811.38   -99448.355    1013.1314    97.488616     5.239962    148.19299     51.00574 
  730000    318.00611   -100806.89   -99447.367    1013.1314    97.488616     5.239962    148.99961    51.373514 
  732000    318.68256    -100808.5   -99446.083    1013.1314    97.488616     5.239962    149.83588     50.75476 
  734000    316.29535   -100797.28   -99445.072    1013.1314    97.488616     5.239962    150.60755    41.848515 
  736000    317.86976   -100802.75   -99443.805    1013.1314    97.488616     5.239962    151.64048    44.386643 
  738000    318.93463   -100805.92   -99442.425    1013.1314    97.488616     5.239962    152.27446    44.252398 
  740000    318.16965   -100801.39   -99441.167    1013.1314    97.488616     5.239962     153.2073    44.364628 
  742000    318.99557   -100803.55   -99439.801    1013.1314    97.488616     5.239962    154.04837    45.983971 
  744000    317.71173   -100797.27   -99439.006    1013.1314    97.488616     5.239962    155.00506    43.107078 
  746000    318.58842   -100799.95   -99437.935    1013.1314    97.488616     5.239962    155.84498    39.711699 
  748000    318.38808   -100798.28   -99437.122    1013.1314    97.488616     5.239962    156.80392    41.424575 
  750000    320.06612   -100804.28   -99435.953    1013.1314    97.488616     5.239962    157.65805    41.807491 
  752000    320.60823    -100805.5   -99434.848    1013.1314    97.488616     5.239962    158.52338    47.969391 
  754000     319.6039   -100800.68   -99434.329    1013.1314    97.488616     5.239962    159.31111    46.152133 
  756000     318.3874   -100794.58    -99433.43    1013.1314    97.488616     5.239962    160.28662    50.004007 
  758000      320.401   -100801.63   -99431.869    1013.1314    97.488616     5.239962    161.14422    55.239073 
  760000    320.35199   -100800.55   -99430.995    1013.1314    97.488616     5.239962    161.91853    51.957395 
  762000    320.13761   -100798.59   -99429.954    1013.1314    97.488616     5.239962    162.93584    57.406748 
  764000    321.09369   -100802.22   -99429.495    1013.1314    97.488616     5.239962    163.69686    60.441343 
  766000    321.49815   -100802.91   -99428.458    1013.1314    97.488616     5.239962    164.48871    60.905326 
  768000    318.88863   -100790.93   -99427.637    1013.1314    97.488616     5.239962    165.31331    52.542906 
  770000    320.55511      -100797   -99426.582    1013.1314    97.488616     5.239962    166.28478    57.076959 
  772000    321.22441    -100798.5   -99425.218    1013.1314    97.488616     5.239962    167.15006    55.121724 
  774000    320.20075   -100793.16   -99424.258    1013.1314    97.488616     5.239962    167.96873    54.877674 
  776000    321.22396   -100796.67   -99423.394    1013.1314    97.488616     5.239962     168.7157    59.474865 
  778000     319.6019   -100788.83   -99422.484    1013.1314    97.488616     5.239962    169.40266    57.199159 
  780000    322.70986   -100800.77   -99421.136    1013.1314    97.488616     5.239962    170.09954    47.803438 
  782000    319.56697   -100786.43   -99420.229    1013.1314    97.488616     5.239962    171.04294    50.669873 
  784000    319.21444   -100784.12   -99419.429    1013.1314    97.488616     5.239962    171.71136    55.339273 
  786000    319.08857   -100782.42   -99418.268    1013.1314    97.488616     5.239962    172.53292    49.929721 
  788000     321.5822   -100791.74   -99416.925    1013.1314    97.488616     5.239962    173.42323    47.217978 
  790000    322.02799   -100792.74   -99416.019    1013.1314    97.488616     5.239962    174.44575    43.707361 
  792000    321.87692    -100790.9   -99414.827    1013.1314    97.488616     5.239962    175.23535    49.033106 
  794000    321.37054   -100788.01   -99414.104    1013.1314    97.488616     5.239962    176.10323    50.767836 
  796000    321.32772   -100787.17    -99413.45    1013.1314    97.488616     5.239962    176.80487    54.637558 
  798000    321.42124   -100786.93   -99412.804    1013.1314    97.488616     5.239962    177.55147    54.346037 
  800000    324.09335   -100797.03   -99411.482    1013.1314    97.488616     5.239962     178.6591    45.592896 
  802000     323.2226   -100791.79   -99409.963    1013.1314    97.488616     5.239962    179.72974    47.764608 
  804000    321.57505   -100783.66    -99408.88    1013.1314    97.488616     5.239962    180.62209    46.662469 
  806000    321.66554   -100783.08   -99407.916    1013.1314    97.488616     5.239962    181.57929    44.697069 
  808000    323.22766   -100789.06   -99407.211    1013.1314    97.488616     5.239962    182.51571    45.754249 
  810000    324.19391   -100792.18   -99406.201    1013.1314    97.488616     5.239962    183.37392    43.396806 
  812000    322.48608   -100783.83   -99405.158    1013.1314    97.488616     5.239962    184.23334    50.130909 
  814000    322.77084   -100783.79   -99403.892    1013.1314    97.488616     5.239962    184.92157    56.140845 
  816000    323.20174   -100784.17   -99402.433    1013.1314    97.488616     5.239962    185.84038    49.776722 
  818000    323.48215   -100784.05   -99401.114    1013.1314    97.488616     5.239962    186.70594    50.603819 
  820000    322.62894   -100778.96   -99399.674    1013.1314    97.488616     5.239962     187.5979    55.369867 
  822000    323.14039   -100780.08   -99398.606    1013.1314    97.488616     5.239962    188.27022    50.894293 
  824000    321.93996   -100774.16   -99397.817    1013.1314    97.488616     5.239962    189.00478    54.284283 
  826000    322.99614   -100777.83   -99396.976    1013.1314    97.488616     5.239962    189.80349    54.049556 
  828000     325.0712   -100785.75   -99396.023    1013.1314    97.488616     5.239962    190.70755    56.889022 
  830000    323.31986   -100777.02   -99394.781    1013.1314    97.488616     5.239962    191.68903    52.873651 
  832000    323.00769   -100774.33   -99393.427    1013.1314    97.488616     5.239962    192.59735    51.986423 
  834000    324.34328   -100778.95   -99392.333    1013.1314    97.488616     5.239962    193.78503    58.447008 
  836000    325.21896      -100782   -99391.638    1013.1314    97.488616     5.239962    194.61747    58.083249 
  838000    324.67379    -100778.8   -99390.768    1013.1314    97.488616     5.239962    195.65736    56.630344 
  840000    324.00378   -100774.52   -99389.352    1013.1314    97.488616     5.239962    196.23355    56.649001 
  842000    324.46903   -100775.47   -99388.312    1013.1314    97.488616     5.239962    197.07976    54.171619 
  844000    325.22044    -100777.7    -99387.33    1013.1314    97.488616     5.239962    197.88299    55.461337 
  846000    324.68553   -100774.77   -99386.693    1013.1314    97.488616     5.239962    198.74295    51.665912 
  848000    326.55281   -100781.57   -99385.505    1013.1314    97.488616     5.239962    199.59944     54.70923 
  850000    324.18611   -100770.09   -99384.147    1013.1314    97.488616     5.239962    200.53836    48.660633 
  852000    326.63476   -100779.42   -99383.009    1013.1314    97.488616     5.239962    201.45488    53.553551 
  854000    326.26903   -100776.74    -99381.89    1013.1314    97.488616     5.239962    202.35157    50.612085 
  856000    324.60103   -100768.68   -99380.959    1013.1314    97.488616     5.239962    202.96159    53.230401 
  858000    326.64838   -100775.97     -99379.5    1013.1314    97.488616     5.239962    203.99469    50.960349 
  860000    326.00314   -100771.85    -99378.14    1013.1314    97.488616     5.239962    204.84308    52.647625 
  862000    327.42763   -100776.61   -99376.804    1013.1314    97.488616     5.239962    205.75847    52.238183 
  864000    325.36319   -100766.91   -99375.935    1013.1314    97.488616     5.239962    206.53084    51.432976 
  866000    326.88475   -100772.22   -99374.735    1013.1314    97.488616     5.239962    207.41825    51.657809 
  868000    327.05733   -100771.21    -99372.99    1013.1314    97.488616     5.239962     208.4627    54.030068 
  870000    325.19615   -100762.09   -99371.832    1013.1314    97.488616     5.239962    209.60064    48.840058 
  872000    328.33936   -100774.51   -99370.815    1013.1314    97.488616     5.239962      210.345    51.878049 
  874000    325.93442   -100763.29   -99369.872    1013.1314    97.488616     5.239962     211.2382    53.510427 
  876000    327.46523   -100768.43   -99368.466    1013.1314    97.488616     5.239962    212.13989    51.848031 
  878000    326.55784   -100763.33   -99367.244    1013.1314    97.488616     5.239962    213.06273    49.141933 
  880000    327.93369   -100768.45   -99366.489    1013.1314    97.488616     5.239962    214.12302    53.406487 
  882000    327.84598   -100766.67   -99365.076    1013.1314    97.488616     5.239962    215.00286    51.716434 
  884000    327.08334   -100762.32   -99363.986    1013.1314    97.488616     5.239962    216.12948    52.174265 
  886000    326.64207    -100759.5   -99363.059    1013.1314    97.488616     5.239962    216.83945    52.347217 
  888000     327.3856   -100761.28    -99361.66    1013.1314    97.488616     5.239962    217.87204     49.88288 
  890000    329.74041   -100770.23   -99360.541    1013.1314    97.488616     5.239962     218.7901     52.27542 
  892000    329.76578      -100769   -99359.206    1013.1314    97.488616     5.239962     219.8865    42.066409 
  894000     328.6887    -100762.9   -99357.705    1013.1314    97.488616     5.239962    220.62947    46.686258 
  896000    330.70472   -100770.46   -99356.652    1013.1314    97.488616     5.239962    221.67767    48.561501 
  898000    327.97904   -100757.85   -99355.695    1013.1314    97.488616     5.239962    222.73393    46.310709 
  900000    327.39562   -100753.98   -99354.311    1013.1314    97.488616     5.239962    223.90821    50.913163 
  902000    327.63061   -100753.88   -99353.208    1013.1314    97.488616     5.239962     224.8785    55.648999 
  904000    328.88619   -100757.92   -99351.884    1013.1314    97.488616     5.239962    225.83538    50.830592 
  906000    328.74336   -100756.55    -99351.12    1013.1314    97.488616     5.239962    226.70631    45.725925 
  908000    330.30047   -100762.46   -99350.378    1013.1314    97.488616     5.239962    227.69639    50.854532 
  910000    328.44769   -100753.42    -99349.26    1013.1314    97.488616     5.239962    228.59468    44.672905 
  912000    329.79086   -100758.11   -99348.204    1013.1314    97.488616     5.239962    229.59184    46.802114 
  914000    327.83143   -100748.37   -99346.845    1013.1314    97.488616     5.239962    230.65336    44.825766 
  916000     329.1709    -100753.3   -99346.041    1013.1314    97.488616     5.239962    231.50024    46.858338 
  918000    331.05566   -100760.06   -99344.744    1013.1314    97.488616     5.239962    232.38627    47.134589 
  920000    330.72474   -100757.77   -99343.869    1013.1314    97.488616     5.239962     233.3915    44.796619 
  922000    330.00369   -100753.27   -99342.456    1013.1314    97.488616     5.239962    234.14139    45.916468 
  924000    328.42253   -100745.12   -99341.065    1013.1314    97.488616     5.239962    234.78012    49.188752 
  926000    331.23047   -100755.49   -99339.429    1013.1314    97.488616     5.239962    235.48629    44.377488 
  928000     331.0353   -100753.41   -99338.183    1013.1314    97.488616     5.239962    236.27347    45.125863 
  930000    330.36582   -100749.47    -99337.11    1013.1314    97.488616     5.239962    237.12449    48.758932 
  932000    330.45539   -100748.64   -99335.897    1013.1314    97.488616     5.239962    237.99023    53.430305 
  934000    331.79475   -100752.88   -99334.409    1013.1314    97.488616     5.239962    238.83786    51.044276 
  936000    331.02809   -100748.14    -99332.95    1013.1314    97.488616     5.239962    239.94247    50.541927 
  938000    330.85876   -100746.63   -99332.164    1013.1314    97.488616     5.239962    240.68846     63.37794 
  940000    332.06844   -100750.09   -99330.449    1013.1314    97.488616     5.239962    241.46186    63.089748 
  942000    332.66907   -100751.78   -99329.573    1013.1314    97.488616     5.239962    242.15269    62.533859 
  944000    329.27348    -100735.9   -99328.208    1013.1314    97.488616     5.239962    243.11002    59.282924 
  946000     332.7038   -100748.94   -99326.584    1013.1314    97.488616     5.239962    243.92265    63.258324 
  948000    331.39205   -100742.24   -99325.487    1013.1314    97.488616     5.239962    244.91059    59.479338 
  950000    329.50211      -100733   -99324.329    1013.1314    97.488616     5.239962    245.78939    59.241501 
  952000    332.69183   -100745.74   -99323.432    1013.1314    97.488616     5.239962    246.49892     56.58432 
  954000    333.80684      -100749   -99321.925    1013.1314    97.488616     5.239962    247.41183    59.141127 
  956000      332.956   -100743.89   -99320.451    1013.1314    97.488616     5.239962    248.25619    62.737877 
  958000     332.7373   -100741.94   -99319.437    1013.1314    97.488616     5.239962    249.31382    65.175412 
  960000      332.631   -100740.02   -99317.968    1013.1314    97.488616     5.239962    249.99916    65.935957 
  962000     332.6581   -100738.86   -99316.696    1013.1314    97.488616     5.239962    250.93225    64.710421 
  964000    331.91831   -100734.44   -99315.435    1013.1314    97.488616     5.239962    251.87943    67.092789 
  966000    333.03131   -100737.48   -99313.726    1013.1314    97.488616     5.239962    253.03587    63.675623 
  968000    334.24357   -100741.19   -99312.246    1013.1314    97.488616     5.239962     254.1486    62.153126 
  970000    332.53573   -100733.18   -99311.542    1013.1314    97.488616     5.239962    255.12208    61.684008 
  972000    333.49667   -100735.99   -99310.245    1013.1314    97.488616     5.239962    255.85478    70.617354 
  974000    332.52243   -100730.08   -99308.493    1013.1314    97.488616     5.239962     257.0009     66.24438 
  976000    334.88998    -100739.4   -99307.691    1013.1314    97.488616     5.239962    257.99541    67.922725 
  978000    336.03458   -100743.33   -99306.729    1013.1314    97.488616     5.239962    258.85482    60.118732 
  980000    333.55441   -100731.02   -99305.024    1013.1314    97.488616     5.239962    259.75366    58.848163 
  982000    334.33903   -100732.59   -99303.239    1013.1314    97.488616     5.239962    260.57494    59.818055 
  984000    334.35547   -100731.65    -99302.23    1013.1314    97.488616     5.239962    261.48895     60.09634 
  986000     332.8433   -100724.27   -99301.312    1013.1314    97.488616     5.239962     262.3875    64.085476 
  988000    334.17307   -100728.73   -99300.086    1013.1314    97.488616     5.239962    263.29239    64.348807 
  990000    334.54651   -100728.87   -99298.638    1013.1314    97.488616     5.239962     264.2689    64.506536 
  992000     335.8872   -100733.15   -99297.179    1013.1314    97.488616     5.239962    265.06377    68.358457 
  994000    336.76593   -100735.49   -99295.764    1013.1314    97.488616     5.239962    266.04285    66.190234 
  996000    335.69944   -100729.62   -99294.457    1013.1314    97.488616     5.239962     266.8479    63.772087 
  998000     336.9182   -100733.42   -99293.044    1013.1314    97.488616     5.239962      267.736    68.185375 
 1000000    337.52038   -100734.61   -99291.661    1013.1314    97.488616     5.239962    268.71113    59.137543 
 1002000    336.61295   -100729.49    -99290.42    1013.1314    97.488616     5.239962    269.47033    60.793479 
 1004000    337.47576   -100731.86   -99289.097    1013.1314    97.488616     5.239962    270.24566    69.968818 
 1006000    337.62603   -100731.46    -99288.06    1013.1314    97.488616     5.239962    271.39114    63.186701 
 1008000    338.26715   -100732.92   -99286.782    1013.1314    97.488616     5.239962    272.15146    61.475582 
 1010000    337.13222   -100726.62   -99285.327    1013.1314    97.488616     5.239962    273.06409    67.825257 
 1012000     338.3319   -100730.58   -99284.162    1013.1314    97.488616     5.239962    273.92493    64.330082 
 1014000    337.03972   -100723.92   -99283.027    1013.1314    97.488616     5.239962    274.74519    68.695048 
 1016000    338.55993   -100729.26   -99281.869    1013.1314    97.488616     5.239962    275.75233    69.851458 
 1018000     337.5725   -100723.75   -99280.576    1013.1314    97.488616     5.239962     276.4009    62.262044 
 1020000    337.83924   -100723.43   -99279.119    1013.1314    97.488616     5.239962    277.20847    64.558264 
 1022000    337.30144   -100719.69   -99277.676    1013.1314    97.488616     5.239962    278.23418    60.466521 
 1024000    338.41967    -100723.3    -99276.51    1013.1314    97.488616     5.239962     279.1096     59.94603 
 1026000    338.03019   -100720.01    -99274.88    1013.1314    97.488616     5.239962     279.8617    60.710197 
 1028000    337.32311   -100715.65   -99273.538    1013.1314    97.488616     5.239962    280.87032    57.317051 
 1030000    339.47102   -100723.78   -99272.494    1013.1314    97.488616     5.239962    281.82026    61.914161 
 1032000     337.4106   -100713.45   -99270.971    1013.1314    97.488616     5.239962    282.83122    60.619959 
 1034000    340.02395   -100723.65   -99269.992    1013.1314    97.488616     5.239962    283.53909    59.295217 
 1036000    338.96239   -100718.23   -99269.116    1013.1314    97.488616     5.239962    284.29832    59.718839 
 1038000    339.23057   -100718.02   -99267.755    1013.1314    97.488616     5.239962    285.15437    57.525381 
 1040000    338.11059   -100711.48   -99266.002    1013.1314    97.488616     5.239962    285.96483    55.434284 
 1042000     340.8112   -100721.65   -99264.631    1013.1314    97.488616     5.239962    286.80518    50.301015 
 1044000    340.00538   -100717.11   -99263.538    1013.1314    97.488616     5.239962    287.73527    57.166004 
 1046000    338.01016   -100707.36   -99262.314    1013.1314    97.488616     5.239962    288.64966    56.370754 
 1048000    340.30828   -100715.66   -99260.787    1013.1314    97.488616     5.239962    289.48735    58.859157 
 1050000    338.96508   -100708.58   -99259.453    1013.1314    97.488616     5.239962    290.36543     61.58377 
 1052000    339.90464   -100711.27   -99258.122    1013.1314    97.488616     5.239962     291.3446    60.192049 
 1054000    340.25821    -100711.7   -99257.049    1013.1314    97.488616     5.239962    292.26644    64.338128 
 1056000    340.38652   -100711.04   -99255.839    1013.1314    97.488616     5.239962    293.19011    60.397296 
 1058000    341.44627   -100714.22   -99254.484    1013.1314    97.488616     5.239962    294.18753    64.115453 
 1060000    341.06668   -100711.04   -99252.925    1013.1314    97.488616     5.239962    295.01843     65.52682 
 1062000    339.87257    -100704.2   -99251.196    1013.1314    97.488616     5.239962    295.81162    64.866985 
 1064000    343.01614   -100716.77   -99250.322    1013.1314    97.488616     5.239962    296.75451    69.632909 
 1066000     340.2284   -100702.74   -99248.215    1013.1314    97.488616     5.239962    297.60511    65.560804 
 1068000    338.89103   -100695.91   -99247.102    1013.1314    97.488616     5.239962    298.66715    70.446931 
 1070000    341.33409   -100704.58   -99245.326    1013.1314    97.488616     5.239962    299.80222    72.123116 
 1072000    340.68436   -100700.27   -99243.794    1013.1314    97.488616     5.239962    300.54779    64.539468 
 1074000    342.14726   -100705.25   -99242.515    1013.1314    97.488616     5.239962    301.33042    65.957792 
 1076000      341.869   -100703.28   -99241.736    1013.1314    97.488616     5.239962     302.3511    69.038921 
 1078000    339.51499    -100692.1   -99240.621    1013.1314    97.488616     5.239962    303.17897    67.078553 
 1080000    340.83652   -100696.61    -99239.48    1013.1314    97.488616     5.239962    303.84945    68.215549 
 1082000    342.58148    -100702.6   -99238.008    1013.1314    97.488616     5.239962    304.64299    66.891506 
 1084000    342.71424   -100701.95   -99236.796    1013.1314    97.488616     5.239962    305.77423    62.570706 
 1086000    342.19475   -100698.33     -99235.4    1013.1314    97.488616     5.239962    306.43477     60.84699 
 1088000    341.68047   -100694.99   -99234.256    1013.1314    97.488616     5.239962    307.25827    62.660254 
 1090000    343.99233   -100703.49   -99232.868    1013.1314    97.488616     5.239962    308.24972    63.854453 
 1092000    343.06761   -100698.07   -99231.408    1013.1314    97.488616     5.239962     309.0561    69.684606 
 1094000    342.41879   -100693.62   -99229.733    1013.1314    97.488616     5.239962    309.89806    73.406541 
 1096000    343.31175   -100696.55   -99228.838    1013.1314    97.488616     5.239962    310.90916    74.205232 
 1098000    342.18914   -100690.68   -99227.771    1013.1314    97.488616     5.239962    311.46916    71.378943 
 1100000    343.94124   -100696.84   -99226.443    1013.1314    97.488616     5.239962    312.31612    66.463304 
 1102000    342.17786   -100687.65   -99224.786    1013.1314    97.488616     5.239962    313.36383    71.206458 
 1104000    343.74597   -100693.16   -99223.599    1013.1314    97.488616     5.239962    314.19344    70.608106 
 1106000    344.14627   -100693.75    -99222.47    1013.1314    97.488616     5.239962    315.13891    69.909538 
 1108000    345.21458   -100696.99   -99221.147    1013.1314    97.488616     5.239962    316.08501     66.20192 
 1110000    344.01432   -100690.39    -99219.68    1013.1314    97.488616     5.239962    316.89113    58.565351 
 1112000    343.25914   -100685.83   -99218.342    1013.1314    97.488616     5.239962    317.83915    59.364883 
 1114000    343.85776   -100687.37   -99217.322    1013.1314    97.488616     5.239962     318.7026    61.910499 
 1116000    345.40756   -100692.64   -99215.968    1013.1314    97.488616     5.239962    319.54527    63.878228 
 1118000    345.20048   -100690.18   -99214.397    1013.1314    97.488616     5.239962     320.3721    63.543206 
 1120000    343.44855   -100680.84   -99212.546    1013.1314    97.488616     5.239962    321.35762    65.162046 
 1122000    345.20524    -100687.1   -99211.298    1013.1314    97.488616     5.239962    322.18892    63.818631 
 1124000    346.75818   -100692.54   -99210.093    1013.1314    97.488616     5.239962    323.19223    68.420213 
 1126000    345.50433   -100685.38   -99208.295    1013.1314    97.488616     5.239962    324.07003    64.048887 
 1128000    343.71523   -100676.15   -99206.715    1013.1314    97.488616     5.239962    324.91941    63.298206 
 1130000    345.15742   -100681.07   -99205.475    1013.1314    97.488616     5.239962    325.94361    59.971369 
 1132000    346.69753   -100686.34   -99204.156    1013.1314    97.488616     5.239962    326.75702    59.987684 
 1134000    346.16607   -100682.23   -99202.321    1013.1314    97.488616     5.239962    327.75702     58.64884 
 1136000     345.9643   -100680.11   -99201.063    1013.1314    97.488616     5.239962    328.67914     64.36243 
 1138000    347.13218   -100684.01   -99199.967    1013.1314    97.488616     5.239962    329.68348    63.138628 
 1140000    348.00222   -100686.43   -99198.667    1013.1314    97.488616     5.239962    330.74417    66.353635 
 1142000    344.98635   -100672.19   -99197.322    1013.1314    97.488616     5.239962    331.37888    65.122698 
 1144000    346.96606   -100679.17   -99195.838    1013.1314    97.488616     5.239962    332.11948    70.097177 
 1146000    348.19206   -100682.78   -99194.203    1013.1314    97.488616     5.239962     333.2428    70.087029 
 1148000    345.85592   -100671.51   -99192.927    1013.1314    97.488616     5.239962    334.07962    66.889609 
 1150000    348.20179   -100679.99   -99191.376    1013.1314    97.488616     5.239962    335.29114    67.866958 
 1152000    348.46678   -100679.77   -99190.024    1013.1314    97.488616     5.239962    336.13717    69.064381 
 1154000    348.24258   -100677.28   -99188.486    1013.1314    97.488616     5.239962     336.8713    72.107588 
 1156000    348.06894   -100674.95     -99186.9    1013.1314    97.488616     5.239962    337.82077    74.366746 
 1158000    348.82551   -100677.07   -99185.786    1013.1314    97.488616     5.239962    338.83944    69.350807 
 1160000    349.56879   -100679.05   -99184.589    1013.1314    97.488616     5.239962    339.75574    71.230599 
 1162000     349.9898   -100679.04   -99182.782    1013.1314    97.488616     5.239962    340.77987    62.227682 
 1164000    350.43557   -100679.39   -99181.229    1013.1314    97.488616     5.239962    341.43936    63.167196 
 1166000    349.34008   -100672.62    -99179.14    1013.1314    97.488616     5.239962       342.36    59.561644 
 1168000    349.68702   -100672.49   -99177.526    1013.1314    97.488616     5.239962    343.16928    60.616196 
 1170000    349.06888    -100668.7   -99176.375    1013.1314    97.488616     5.239962    344.21986    65.363794 
 1172000      351.097    -100675.9   -99174.908    1013.1314    97.488616     5.239962    345.12656    64.268575 
 1174000    350.10502   -100670.37   -99173.614    1013.1314    97.488616     5.239962    346.23583    64.978287 
 1176000    349.26245   -100665.25   -99172.096    1013.1314    97.488616     5.239962     347.2328    66.830009 
 1178000    349.58971   -100665.47   -99170.925    1013.1314    97.488616     5.239962     348.2738    66.069662 
 1180000     349.5947   -100664.01   -99169.443    1013.1314    97.488616     5.239962    349.35374    63.319133 
 1182000     349.0425      -100660   -99167.794    1013.1314    97.488616     5.239962    350.17975     60.20424 
 1184000    349.95468   -100662.85   -99166.742    1013.1314    97.488616     5.239962    351.30902    62.580643 
 1186000    349.58001   -100659.66   -99165.149    1013.1314    97.488616     5.239962    352.21056    61.182723 
 1188000    350.40567   -100662.14   -99164.102    1013.1314    97.488616     5.239962    353.05846    60.618521 
 1190000    352.37446   -100669.16   -99162.706    1013.1314    97.488616     5.239962    353.75181    66.039108 
 1192000    350.31137   -100658.88   -99161.247    1013.1314    97.488616     5.239962    354.76889    65.544341 
[...]
 1394000    370.30933   -100583.25   -99000.121    89.492364    60.164264    69.672588 
 1396000     370.6326   -100582.98   -98998.473    90.236059    64.853581    69.617988 
 1398000    370.02659   -100577.76   -98995.843    91.114603    65.747593    69.578787 
 1400000    369.82112   -100575.18   -98994.139    92.117577    61.756531    69.503352 
 1402000    371.30237   -100579.51   -98992.133    92.908522    67.079806    69.473983 
 1404000     370.5211   -100574.66   -98990.627    93.862676    67.323425    69.459858 
 1406000    372.42563   -100580.84   -98988.661    94.856184    66.467188    69.427992 
 1408000    373.13062   -100581.85   -98986.656    95.868245    63.292137    69.375737 
 1410000    369.56878   -100564.88   -98984.921    96.830734    62.853558    69.325275 
 1412000    374.36905   -100584.03   -98983.542    97.606428    65.763691    69.275775 
 1414000    372.71544      -100575   -98981.583     98.86155       66.791    69.228272 
 1416000    372.32129   -100571.25   -98979.522     99.76207    68.002693    69.229214 
 1418000    374.12397    -100576.9   -98977.465    100.83572    74.687248    69.267971 
 1420000    370.81687   -100560.35   -98975.056    101.81491    77.882312    69.344929 
 1422000    370.98897    -100558.9   -98972.862    102.78846    74.384524    69.406702 
 1424000    374.71207    -100572.8   -98970.854    103.83457    74.024519    69.451115 
 1426000    371.75207   -100558.54   -98969.244    104.75279    71.724325    69.471581 
 1428000    375.90875   -100573.99   -98966.923    105.92345    70.778403    69.485464 
 1430000    372.93646   -100558.92   -98964.562    106.82315    65.270427    69.461224 
 1432000    373.85548   -100560.69   -98962.403     107.8918    70.678062    69.472765 
 1434000    375.41574   -100565.55    -98960.59    108.81251    62.915012       69.449 
 1436000     372.4784   -100551.12   -98958.717    109.94954    62.604953    69.390918 
 1438000    374.42504   -100557.71   -98956.989    110.92959    70.654993    69.401098 
 1440000    373.61389   -100552.25   -98954.991    111.90342    77.029869    69.459145 
 1442000    375.11314   -100557.31   -98953.641    112.75888    78.754457    69.529829 
 1444000     377.3697   -100565.13   -98951.816    113.74533    75.835571    69.599002 
 1446000    375.37686   -100554.03   -98949.235    114.55043    77.102945    69.660724 
 1448000    373.57438   -100544.99   -98947.907    115.69571    71.442635    69.660069 
 1450000    375.33852   -100550.43     -98945.8    116.52464    73.268096    69.689223 
 1452000    376.67633    -100553.8   -98943.454    117.47094    67.210835     69.68533 
 1454000    375.28261   -100546.06   -98941.674    118.48869    68.222792    69.671904 
 1456000    377.43628   -100552.53    -98938.93    119.32423    70.810522    69.685195 
 1458000    376.95073   -100548.47   -98936.946    120.20536    68.159638    69.673764 
 1460000    379.42292   -100557.34   -98935.253    121.02185    67.315733    69.651356 
 1462000    379.92958   -100557.54   -98933.286    121.80133    70.176169    69.652463 
 1464000    377.92272   -100546.97   -98931.291    122.60197    67.398462     69.63757 
 1466000    376.69666   -100539.86   -98929.425    123.56361    71.824012    69.647967 
 1468000    377.33524   -100541.16   -98927.991    124.61298    71.267687    69.677834 
 1470000    379.96159   -100550.85   -98926.456    125.53268    78.968556     69.72308 
 1472000    379.04152   -100544.62   -98924.156    126.43875    74.756742    69.765648 
 1474000    378.39678   -100540.53    -98922.83    127.20371    73.836753      69.7979 
 1476000     377.5051   -100535.71   -98921.821    128.32961    71.047999    69.822618 
 1478000    379.16813   -100541.29    -98920.29    129.24498    72.024373     69.84507 
 1480000    377.99803   -100534.81   -98918.808    130.45078    75.540992    69.867123 
 1482000    379.75067   -100540.42    -98916.93    131.51674    73.184149    69.900128 
 1484000    378.86332      -100535   -98915.306    132.45422    76.357079    69.946566 
 1486000    379.95769   -100538.28   -98913.904     133.6976    77.958941    69.993795 
 1488000    379.48935   -100533.51   -98911.137    134.67221    78.488165    70.047919 
 1490000    378.57968   -100527.69   -98909.202    135.70872    86.263989    70.144721 
 1492000     381.1743   -100536.27   -98906.696    136.64828    85.425557    70.245754 
 1494000    379.19495   -100525.59   -98904.472    137.78442    79.994663    70.327675 
 1496000    379.31749   -100524.16   -98902.517    138.84805    72.705471    70.358677 
 1498000    379.65896   -100523.57   -98900.466    139.73445    78.626313    70.401784 
 1500000    381.74482    -100530.3   -98898.284    140.74976    74.311383    70.434341 
 1502000    380.02347   -100521.06   -98896.401    141.75887    78.167871    70.492902 
 1504000    382.86055   -100530.77    -98893.98    142.68369    81.764086    70.552583 
 1506000    383.28233   -100530.56   -98891.967    143.57715    83.618381    70.635313 
 1508000    381.51047   -100520.95    -98889.94    144.46331    91.697921    70.761905 
 1510000    382.92861   -100525.17   -98888.095    145.33149    93.094868    70.902488 
 1512000    380.71203   -100513.99   -98886.385    146.13729    92.389283    71.047162 
 1514000    381.63203   -100516.24   -98884.702    146.88255    89.239633    71.176555 
 1516000    382.34441   -100517.12   -98882.536    147.83145    87.456638    71.283393 
 1518000     385.0822   -100527.02   -98880.732    148.94614    86.376221    71.387809 
 1520000    383.75542   -100519.79   -98879.178    149.86216    86.307934    71.476864 
 1522000    381.66802   -100508.95   -98877.267    150.83937    84.277179    71.559497 
 1524000    384.22123    -100518.3   -98875.699    151.90196    85.168851    71.627866 
 1526000    384.62241   -100518.75   -98874.432    152.75521    78.229738    71.672091 
 1528000    386.85727   -100526.47   -98872.596    153.72863    87.975765    71.758926 
 1530000    386.47485   -100522.46   -98870.227    154.66934    81.947224    71.829143 
 1532000    383.75408   -100508.69    -98868.08    155.63424    83.307339    71.889537 
 1534000    385.29144   -100512.96   -98865.784    156.74139    78.897145    71.936047 
 1536000     386.5544   -100516.22   -98863.641    157.69921    87.503099    72.015273 
 1538000     387.1419   -100517.26   -98862.171    158.60653    83.501875    72.091373 
 1540000    384.56563   -100503.87   -98859.792    159.66429    83.251384    72.156936 
 1542000    384.96014   -100503.62   -98857.853    160.56068    85.472612    72.237504 
 1544000    386.02023   -100506.05   -98855.754    161.34833    90.202846     72.32116 
 1546000    385.90918   -100503.93   -98854.115    162.51194    89.296832    72.424454 
 1548000    386.71008   -100505.43   -98852.185    163.65516    91.657954    72.528795 
 1550000    387.09892   -100505.24   -98850.336    164.62523     89.19672    72.626471 
 1552000    386.97791   -100502.85    -98848.46    165.52254     80.59068    72.684396 
 1554000    389.71101    -100512.7   -98846.623    166.51856     85.24227    72.752382 
 1556000    388.07907   -100503.37    -98844.27    167.57602    86.693507    72.822509 
 1558000    388.94727   -100505.21   -98842.406    168.60469    89.862381    72.909339 
 1560000    388.04439   -100499.48   -98840.536    169.55771    93.734542     73.02126 
 1562000    387.78968   -100495.83   -98837.971    170.38906     86.11505    73.107926 
 1564000    391.51733   -100509.91   -98836.114    171.46523    84.652449    73.174984 
 1566000    388.73827   -100496.32    -98834.41    172.20221    86.362778    73.246111 
 1568000    385.59225   -100480.67   -98832.207    173.15745    86.045062     73.32037 
 1570000    390.96639   -100501.52   -98830.082    174.21151    87.289537    73.398989 
 1572000    390.56141   -100498.14   -98828.428    175.03498    89.019402    73.479368 
 1574000    391.68447   -100500.84   -98826.331    175.72961    94.274573    73.571906 
 1576000    390.21561   -100492.32   -98824.094    176.94003    86.238077    73.652129 
 1578000     388.5753   -100483.82   -98822.607    178.19424    85.529375    73.705429 
 1580000     392.7946   -100499.88   -98820.623    179.13309    81.932596    73.758405 
 1582000    389.42586   -100483.01   -98818.159    180.15791    85.868633    73.817951 
 1584000    392.18571   -100493.07   -98816.414    181.23179    83.083046    73.859221 
 1586000    394.08597   -100499.59   -98814.811    182.11946    82.942705    73.907749 
 1588000    391.41531   -100485.72   -98812.357    183.10319    78.694259    73.928489 
 1590000     394.7025   -100497.42   -98810.012     184.2756    81.819792    73.965634 
 1592000    393.96468   -100492.23   -98807.968    185.23439    80.947413     74.01305 
 1594000    389.80307    -100472.4    -98805.93    186.07813    83.500091    74.052681 
 1596000    393.56745   -100486.78   -98804.222    187.00874    78.842834      74.0848 
 1598000    389.47594   -100466.84   -98801.769    187.88357     73.47797    74.087987 
 1600000    393.35858   -100480.88   -98799.214    188.90614    76.991639    74.093492 
 1602000     393.4503   -100479.81   -98797.753    189.80584    76.991024    74.113385 
 1604000    393.76125   -100479.38   -98795.987    190.68856    79.137074    74.137759 
 1606000    393.35319   -100476.12   -98794.474    191.69557    80.703506    74.164205 
 1608000    392.78314   -100471.44   -98792.231    192.57656    76.634498    74.187327 
 1610000    394.45558   -100476.82   -98790.467    193.40589    85.974214    74.238735 
 1612000    394.46771   -100474.47   -98788.065    194.49809    82.949564    74.285756 
 1614000    398.81198    -100490.7   -98785.718    195.37039    88.003684    74.348042 
 1616000    394.67798   -100470.57   -98783.266    196.20694    85.695526     74.41573 
 1618000    395.21867   -100470.63   -98781.012    197.11271     86.04411    74.481405 
 1620000    393.77041   -100462.98   -98779.552     198.3261    83.249272     74.52392 
 1622000    395.56868   -100468.87   -98777.756    199.22405    81.244265    74.562651 
 1624000    397.05336   -100473.82   -98776.361    200.06846    79.494803    74.588268 
 1626000    396.67542   -100470.07   -98774.224    201.07273     78.61383    74.607516 
 1628000    395.76293   -100464.18   -98772.231    202.26172    78.411876    74.622565 
 1630000     395.2269   -100460.31   -98770.659    203.38432     78.58439    74.643699 
 1632000    395.76912   -100460.42   -98768.448    204.18995    74.266992    74.643734 
 1634000    396.78478   -100462.34   -98766.022    205.07247    79.828681    74.661854 
 1636000    398.04212    -100465.1    -98763.41    206.16543    75.942833    74.668253 
 1638000    398.04188   -100462.78   -98761.089      207.195    76.225358    74.686534 
 1640000    396.26571   -100452.71   -98758.619    208.13406    77.345731    74.690654 
 1642000    400.16558   -100467.56    -98756.79    208.81531    78.799698    74.706802 
 1644000    397.74156   -100454.85   -98754.444    209.78588    82.031257    74.735111 
 1646000    398.99613   -100457.47     -98751.7     210.6148    85.082587    74.780059 
 1648000    399.88589    -100458.9   -98749.323    211.53503    82.044467    74.815536 
 1650000    399.22304   -100453.29   -98746.549    212.65066    80.383115    74.844527 
 1652000    399.13358    -100450.6   -98744.245    213.59913    78.808922    74.863609 
 1654000    400.55572   -100454.31   -98741.869    214.43407    77.357991    74.872941 
 1656000    400.56301    -100452.8    -98740.33    215.78996    82.809509    74.904902 
 1658000    403.46952   -100462.44   -98737.546    216.73192    83.705832    74.942357 
 1660000    402.07758   -100454.48    -98735.54     217.6182    85.305123    74.982195 
 1662000    400.03144   -100443.66   -98733.469    218.50599     87.55973    75.039132 
 1664000    402.57835   -100452.87   -98731.787    219.60663    94.557994    75.113327 
 1666000    400.72686   -100443.28   -98730.116    220.28239    93.665629    75.200324 
 1668000    403.11888   -100450.95    -98727.56    221.30106     86.94415    75.258938 
 1670000    401.54522   -100441.96   -98725.298    222.51535    88.843018    75.309159 
 1672000    403.23258   -100447.15   -98723.274    223.50436     91.72304    75.373211 
 1674000    404.31265   -100449.33   -98720.833    224.58178    89.924435    75.432021 
 1676000    400.59816   -100431.09    -98718.47    225.64955     91.03332    75.492846 
 1678000    404.06734   -100443.75   -98716.301    226.53087     96.65994    75.574193 
 1680000    402.09684   -100433.34   -98714.319    227.51743    92.237802    75.649023 
 1682000    405.92751   -100447.62   -98712.216    228.64854     95.41473     75.71572 
 1684000    402.16319   -100428.92   -98709.616    229.60233    88.922073    75.777169 
 1686000    403.04532   -100430.05   -98706.967    230.55199    99.934428     75.86508 
 1688000    404.75153    -100435.3    -98704.93    231.60673    102.02821    75.962513 
 1690000    402.40161   -100423.37   -98703.044    232.51634    94.468964    76.048916 
 1692000    405.35945   -100433.32   -98700.345    233.27974    96.602428    76.132049 
 1694000    405.43196   -100430.96   -98697.677    234.49598    95.009005    76.213277 
 1696000    403.48062   -100419.93   -98694.989    235.48793    98.499669    76.303426 
 1698000    405.86323   -100427.66   -98692.529    236.34735    96.390889    76.387533 
 1700000    405.90044   -100425.91   -98690.623    237.36028    98.752561    76.476408 
 1702000    404.77852   -100419.34   -98688.854     238.3523    103.68897    76.577015 
 1704000    403.75881   -100412.67    -98686.54    239.45382    102.77031    76.684888 
 1706000    407.27188   -100424.75   -98683.598    240.58232    97.650386    76.778598 
 1708000    407.58757   -100424.17   -98681.669    241.42194    95.182412    76.853164 
 1710000    408.27475    -100424.7   -98679.268    242.58919    87.257976    76.896471 
 1712000    406.80789   -100415.73   -98676.564    243.62512     78.89393    76.908011 
 1714000    409.45842   -100424.48   -98673.982    244.40816     75.08246    76.902326 
 1716000    408.61172   -100418.27   -98671.394    245.50539    81.408851    76.917277 
 1718000    409.53584   -100419.74   -98668.917    246.62129    84.668662    76.937896 
 1720000    407.87984   -100410.43   -98666.679     247.5776    81.733452    76.962322 
 1722000    408.07592   -100408.78    -98664.19    248.41591    83.090317     76.98203 
 1724000     408.8639   -100409.92   -98661.964    249.41163    77.919132    76.995851 
 1726000    407.55596   -100401.52   -98659.153    250.34377    80.163911    77.004572 
 1728000    410.94115   -100413.74   -98656.905    251.31157    84.311013    77.026495 
 1730000    411.08172   -100411.86    -98654.42    252.17684    85.287566    77.056724 
 1732000    410.15198   -100405.13   -98651.671    253.23572    80.637201    77.071152 
 1734000    411.10967   -100406.78   -98649.227    254.24875    83.245693    77.088875 
 1736000    409.82987   -100399.21   -98647.126    255.20767     87.33175    77.124414 
 1738000    413.32084   -100411.89   -98644.883    256.06468     83.83808    77.153669 
 1740000    410.20928   -100396.22   -98642.512    256.94079    80.677943    77.166018 
 1742000    413.08669   -100407.19    -98641.18    257.98787    84.709158    77.186871 
 1744000    412.40832   -100402.22   -98639.114    259.03742    85.337625    77.221489 
 1746000    413.17757   -100403.35   -98636.949     260.0297    86.959231    77.255142 
 1748000    411.66915   -100394.42   -98634.473    261.15822    86.987229    77.288582 
 1750000    412.87235   -100397.92   -98632.826    262.17512    92.818669    77.334298 
 1752000    414.54825   -100402.65   -98630.399    263.15686     93.34797    77.393859 
 1754000    414.73796   -100400.87   -98627.808    264.04937    92.520592    77.451835 
 1756000    412.24292   -100387.49   -98625.092    265.06278    96.185498    77.514452 
 1758000    412.97122   -100388.09   -98622.577    265.92928    102.54829    77.593585 
 1760000    415.60788      -100397   -98620.219    267.05858    97.102414    77.666786 
 1762000     414.3248   -100388.83   -98617.531     268.1354    103.26956    77.746842 
 1764000    415.25143   -100390.61   -98615.346    269.03365    91.025347    77.806374 
 1766000    414.24042   -100383.04   -98612.101    270.31368    96.456626    77.864212 
 1768000    412.31345   -100372.31    -98609.61    271.17827    100.48566    77.941578 
 1770000    417.20498   -100390.74   -98607.129    272.41695    99.713999     78.01713 
 1772000     416.2052   -100383.59   -98604.247    273.32301    103.36539    78.099939 
 1774000    417.56113   -100387.09   -98601.954    274.55018    109.65704    78.201928 
 1776000    418.21946   -100386.97   -98599.014    275.56372    116.43627     78.33141 
 1778000    417.19354   -100379.51   -98595.943     276.6931    110.73662    78.444248 
 1780000    417.27552   -100378.09   -98594.179    277.87738    105.20712    78.543017 
 1782000    416.40883   -100371.62   -98591.405    278.95974    108.05383    78.640097 
 1784000    417.20039   -100372.52   -98588.926    279.93817    104.52238    78.729408 
 1786000    417.53877   -100372.61    -98587.57    281.10299    105.23016    78.821597 
 1788000    418.63822    -100374.5   -98584.757    282.10394    104.16935    78.908207 
 1790000      419.629   -100376.22   -98582.241    283.17333    105.63877      79.0041 
 1792000    421.23493   -100381.75   -98580.903    284.14693    104.48192    79.092101 
 1794000    417.87859   -100364.78   -98578.281    285.25997    103.59416    79.177238 
 1796000    419.51816   -100369.97   -98576.469    286.14748    103.92383    79.257252 
 1798000    419.43041   -100366.84   -98573.717    287.25276    100.75101    79.336445 
 1800000    420.68556   -100369.58   -98571.088    288.30835    101.51287    79.406944 
 1802000    418.48998   -100358.32   -98569.216     289.2027    106.32232    79.488366 
 1804000    420.49704    -100364.3   -98566.609    290.15488    108.33473    79.581627 
 1806000    421.34993   -100365.52   -98564.183     291.2502      110.546    79.686597 
 1808000     422.1478   -100365.97   -98561.226    292.12055    100.29469    79.762464 
 1810000     421.1301   -100358.88   -98558.481    293.34983    99.085487    79.825759 
 1812000     422.8487    -100363.2   -98555.454    294.36244    100.31256     79.89732 
 1814000     421.3534   -100354.23   -98552.883    295.12139    102.99357    79.973748 
 1816000    422.38877   -100356.23   -98550.458    295.97974    105.54247    80.054939 
 1818000    423.71465   -100358.97   -98547.521    297.12772    104.90888    80.137941 
 1820000    427.12305   -100370.71   -98544.696    298.36511    103.62244    80.210867 
 1822000     424.0171   -100354.76    -98542.02    299.59619    104.72491    80.292571 
 1824000    426.04324   -100360.79   -98539.387    300.37661    111.05142    80.389191 
 1826000    426.05736   -100358.11   -98536.652    301.35758    108.92075     80.48155 
 1828000     422.2762   -100339.25    -98533.96    302.51215    107.37086    80.565779 
 1830000    425.13999   -100349.11   -98531.571    303.65796    107.91646    80.656676 
 1832000    423.11521   -100338.15   -98529.269    304.60372    99.987024    80.730705 
 1834000    425.72427   -100347.51   -98527.477    305.76224    104.62199     80.80903 
 1836000    427.86009   -100354.04   -98524.869    306.77341    105.23749    80.883933 
 1838000    423.04576   -100331.24    -98522.66    307.87596    103.52628    80.953624 
 1840000    426.98391   -100345.59   -98520.171    309.07977     106.7278    81.034827 
 1842000    424.75039   -100