 # File generated with Atomsk by arman on 2021-01-12 11:07:20
 
        1000  atoms
           1  atom types
 
      0.00000000      25.98000000  xlo xhi
      0.00000000     449.98674275  ylo yhi
      0.00000000       5.00000000  zlo zhi
   -259.80005083       0.00000000       0.00000000  xy xz yz
 
Masses
 
           1   207.20000000    # Pb
 
Atoms # atomic
 
         1    1        0.00000000       0.00000000       1.25000000
         2    1       -0.00007828       3.00006161       1.25000000
         3    1       -2.59800051       4.49986743       1.25000000
         4    1       -2.59807879       7.49992904       1.25000000
         5    1       -5.19600102       8.99973485       1.25000000
         6    1       -5.19607930      11.99979647       1.25000000
         7    1       -7.79400152      13.49960228       1.25000000
         8    1       -7.79407980      16.49966390       1.25000000
         9    1      -10.39200203      17.99946971       1.25000000
        10    1      -10.39208031      20.99953132       1.25000000
        11    1      -12.99000254      22.49933714       1.25000000
        12    1      -12.99008082      25.49939875       1.25000000
        13    1      -15.58800305      26.99920456       1.25000000
        14    1      -15.58808133      29.99926618       1.25000000
        15    1      -18.18600356      31.49907199       1.25000000
        16    1      -18.18608184      34.49913361       1.25000000
        17    1      -20.78400407      35.99893942       1.25000000
        18    1      -20.78408235      38.99900103       1.25000000
        19    1      -23.38200457      40.49880685       1.25000000
        20    1      -23.38208285      43.49886846       1.25000000
        21    1      -25.98000508      44.99867427       1.25000000
        22    1      -25.98008336      47.99873589       1.25000000
        23    1      -28.57800559      49.49854170       1.25000000
        24    1      -28.57808387      52.49860332       1.25000000
        25    1      -31.17600610      53.99840913       1.25000000
        26    1      -31.17608438      56.99847074       1.25000000
        27    1      -33.77400661      58.49827656       1.25000000
        28    1      -33.77408489      61.49833817       1.25000000
        29    1      -36.37200712      62.99814398       1.25000000
        30    1      -36.37208540      65.99820560       1.25000000
        31    1      -38.97000762      67.49801141       1.25000000
        32    1      -38.97008590      70.49807303       1.25000000
        33    1      -41.56800813      71.99787884       1.25000000
        34    1      -41.56808641      74.99794045       1.25000000
        35    1      -44.16600864      76.49774627       1.25000000
        36    1      -44.16608692      79.49780788       1.25000000
        37    1      -46.76400915      80.99761369       1.25000000
        38    1      -46.76408743      83.99767531       1.25000000
        39    1      -49.36200966      85.49748112       1.25000000
        40    1      -49.36208794      88.49754274       1.25000000
        41    1      -51.96001017      89.99734855       1.25000000
        42    1      -51.96008844      92.99741016       1.25000000
        43    1      -54.55801067      94.49721598       1.25000000
        44    1      -54.55808895      97.49727759       1.25000000
        45    1      -57.15601118      98.99708340       1.25000000
        46    1      -57.15608946     101.99714502       1.25000000
        47    1      -59.75401169     103.49695083       1.25000000
        48    1      -59.75408997     106.49701245       1.25000000
        49    1      -62.35201220     107.99681826       1.25000000
        50    1      -62.35209048     110.99687987       1.25000000
        51    1      -64.95001271     112.49668569       1.25000000
        52    1      -64.95009099     115.49674730       1.25000000
        53    1      -67.54801322     116.99655311       1.25000000
        54    1      -67.54809149     119.99661473       1.25000000
        55    1      -70.14601372     121.49642054       1.25000000
        56    1      -70.14609200     124.49648216       1.25000000
        57    1      -72.74401423     125.99628797       1.25000000
        58    1      -72.74409251     128.99634958       1.25000000
        59    1      -75.34201474     130.49615540       1.25000000
        60    1      -75.34209302     133.49621701       1.25000000
        61    1      -77.94001525     134.99602282       1.25000000
        62    1      -77.94009353     137.99608444       1.25000000
        63    1      -80.53801576     139.49589025       1.25000000
        64    1      -80.53809404     142.49595187       1.25000000
        65    1      -83.13601627     143.99575768       1.25000000
        66    1      -83.13609454     146.99581929       1.25000000
        67    1      -85.73401677     148.49562511       1.25000000
        68    1      -85.73409505     151.49568672       1.25000000
        69    1      -88.33201728     152.99549253       1.25000000
        70    1      -88.33209556     155.99555415       1.25000000
        71    1      -90.93001779     157.49535996       1.25000000
        72    1      -90.93009607     160.49542158       1.25000000
        73    1      -93.52801830     161.99522739       1.25000000
        74    1      -93.52809658     164.99528900       1.25000000
        75    1      -96.12601881     166.49509482       1.25000000
        76    1      -96.12609709     169.49515643       1.25000000
        77    1      -98.72401932     170.99496224       1.25000000
        78    1      -98.72409759     173.99502386       1.25000000
        79    1     -101.32201982     175.49482967       1.25000000
        80    1     -101.32209810     178.49489129       1.25000000
        81    1     -103.92002033     179.99469710       1.25000000
        82    1     -103.92009861     182.99475871       1.25000000
        83    1     -106.51802084     184.49456453       1.25000000
        84    1     -106.51809912     187.49462614       1.25000000
        85    1     -109.11602135     188.99443195       1.25000000
        86    1     -109.11609963     191.99449357       1.25000000
        87    1     -111.71402186     193.49429938       1.25000000
        88    1     -111.71410014     196.49436100       1.25000000
        89    1     -114.31202237     197.99416681       1.25000000
        90    1     -114.31210064     200.99422842       1.25000000
        91    1     -116.91002287     202.49403424       1.25000000
        92    1     -116.91010115     205.49409585       1.25000000
        93    1     -119.50802338     206.99390166       1.25000000
        94    1     -119.50810166     209.99396328       1.25000000
        95    1     -122.10602389     211.49376909       1.25000000
        96    1     -122.10610217     214.49383070       1.25000000
        97    1     -124.70402440     215.99363652       1.25000000
        98    1     -124.70410268     218.99369813       1.25000000
        99    1     -127.30202491     220.49350395       1.25000000
       100    1     -127.30210319     223.49356556       1.25000000
       101    1     -129.90002542     224.99337137       1.25000000
       102    1     -129.90010369     227.99343299       1.25000000
       103    1     -132.49802592     229.49323880       1.25000000
       104    1     -132.49810420     232.49330041       1.25000000
       105    1     -135.09602643     233.99310623       1.25000000
       106    1     -135.09610471     236.99316784       1.25000000
       107    1     -137.69402694     238.49297366       1.25000000
       108    1     -137.69410522     241.49303527       1.25000000
       109    1     -140.29202745     242.99284108       1.25000000
       110    1     -140.29210573     245.99290270       1.25000000
       111    1     -142.89002796     247.49270851       1.25000000
       112    1     -142.89010624     250.49277012       1.25000000
       113    1     -145.48802846     251.99257594       1.25000000
       114    1     -145.48810674     254.99263755       1.25000000
       115    1     -148.08602897     256.49244337       1.25000000
       116    1     -148.08610725     259.49250498       1.25000000
       117    1     -150.68402948     260.99231079       1.25000000
       118    1     -150.68410776     263.99237241       1.25000000
       119    1     -153.28202999     265.49217822       1.25000000
       120    1     -153.28210827     268.49223983       1.25000000
       121    1     -155.88003050     269.99204565       1.25000000
       122    1     -155.88010878     272.99210726       1.25000000
       123    1     -158.47803101     274.49191308       1.25000000
       124    1     -158.47810929     277.49197469       1.25000000
       125    1     -161.07603151     278.99178050       1.25000000
       126    1     -161.07610979     281.99184212       1.25000000
       127    1     -163.67403202     283.49164793       1.25000000
       128    1     -163.67411030     286.49170954       1.25000000
       129    1     -166.27203253     287.99151536       1.25000000
       130    1     -166.27211081     290.99157697       1.25000000
       131    1     -168.87003304     292.49138279       1.25000000
       132    1     -168.87011132     295.49144440       1.25000000
       133    1     -171.46803355     296.99125021       1.25000000
       134    1     -171.46811183     299.99131183       1.25000000
       135    1     -174.06603406     301.49111764       1.25000000
       136    1     -174.06611233     304.49117925       1.25000000
       137    1     -176.66403456     305.99098507       1.25000000
       138    1     -176.66411284     308.99104668       1.25000000
       139    1     -179.26203507     310.49085250       1.25000000
       140    1     -179.26211335     313.49091411       1.25000000
       141    1     -181.86003558     314.99071992       1.25000000
       142    1     -181.86011386     317.99078154       1.25000000
       143    1     -184.45803609     319.49058735       1.25000000
       144    1     -184.45811437     322.49064896       1.25000000
       145    1     -187.05603660     323.99045478       1.25000000
       146    1     -187.05611488     326.99051639       1.25000000
       147    1     -189.65403711     328.49032221       1.25000000
       148    1     -189.65411538     331.49038382       1.25000000
       149    1     -192.25203761     332.99018963       1.25000000
       150    1     -192.25211589     335.99025125       1.25000000
       151    1     -194.85003812     337.49005706       1.25000000
       152    1     -194.85011640     340.49011867       1.25000000
       153    1     -197.44803863     341.98992449       1.25000000
       154    1     -197.44811691     344.98998610       1.25000000
       155    1     -200.04603914     346.48979192       1.25000000
       156    1     -200.04611742     349.48985353       1.25000000
       157    1     -202.64403965     350.98965934       1.25000000
       158    1     -202.64411793     353.98972096       1.25000000
       159    1     -205.24204016     355.48952677       1.25000000
       160    1     -205.24211843     358.48958838       1.25000000
       161    1     -207.84004066     359.98939420       1.25000000
       162    1     -207.84011894     362.98945581       1.25000000
       163    1     -210.43804117     364.48926162       1.25000000
       164    1     -210.43811945     367.48932324       1.25000000
       165    1     -213.03604168     368.98912905       1.25000000
       166    1     -213.03611996     371.98919067       1.25000000
       167    1     -215.63404219     373.48899648       1.25000000
       168    1     -215.63412047     376.48905809       1.25000000
       169    1     -218.23204270     377.98886391       1.25000000
       170    1     -218.23212098     380.98892552       1.25000000
       171    1     -220.83004321     382.48873133       1.25000000
       172    1     -220.83012148     385.48879295       1.25000000
       173    1     -223.42804371     386.98859876       1.25000000
       174    1     -223.42812199     389.98866038       1.25000000
       175    1     -226.02604422     391.48846619       1.25000000
       176    1     -226.02612250     394.48852780       1.25000000
       177    1     -228.62404473     395.98833362       1.25000000
       178    1     -228.62412301     398.98839523       1.25000000
       179    1     -231.22204524     400.48820104       1.25000000
       180    1     -231.22212352     403.48826266       1.25000000
       181    1     -233.82004575     404.98806847       1.25000000
       182    1     -233.82012403     407.98813009       1.25000000
       183    1     -236.41804626     409.48793590       1.25000000
       184    1     -236.41812453     412.48799751       1.25000000
       185    1     -239.01604676     413.98780333       1.25000000
       186    1     -239.01612504     416.98786494       1.25000000
       187    1     -241.61404727     418.48767075       1.25000000
       188    1     -241.61412555     421.48773237       1.25000000
       189    1     -244.21204778     422.98753818       1.25000000
       190    1     -244.21212606     425.98759980       1.25000000
       191    1     -246.81004829     427.48740561       1.25000000
       192    1     -246.81012657     430.48746722       1.25000000
       193    1     -249.40804880     431.98727304       1.25000000
       194    1     -249.40812708     434.98733465       1.25000000
       195    1     -252.00604931     436.48714046       1.25000000
       196    1     -252.00612758     439.48720208       1.25000000
       197    1     -254.60404981     440.98700789       1.25000000
       198    1     -254.60412809     443.98706951       1.25000000
       199    1     -257.20205032     445.48687532       1.25000000
       200    1     -257.20212860     448.48693693       1.25000000
       201    1        5.19600000       0.00000000       1.25000000
       202    1        5.19592172       3.00006161       1.25000000
       203    1        2.59799949       4.49986743       1.25000000
       204    1        2.59792121       7.49992904       1.25000000
       205    1       -0.00000102       8.99973485       1.25000000
       206    1       -0.00007930      11.99979647       1.25000000
       207    1       -2.59800152      13.49960228       1.25000000
       208    1       -2.59807980      16.49966390       1.25000000
       209    1       -5.19600203      17.99946971       1.25000000
       210    1       -5.19608031      20.99953132       1.25000000
       211    1       -7.79400254      22.49933714       1.25000000
       212    1       -7.79408082      25.49939875       1.25000000
       213    1      -10.39200305      26.99920456       1.25000000
       214    1      -10.39208133      29.99926618       1.25000000
       215    1      -12.99000356      31.49907199       1.25000000
       216    1      -12.99008184      34.49913361       1.25000000
       217    1      -15.58800407      35.99893942       1.25000000
       218    1      -15.58808235      38.99900103       1.25000000
       219    1      -18.18600457      40.49880685       1.25000000
       220    1      -18.18608285      43.49886846       1.25000000
       221    1      -20.78400508      44.99867427       1.25000000
       222    1      -20.78408336      47.99873589       1.25000000
       223    1      -23.38200559      49.49854170       1.25000000
       224    1      -23.38208387      52.49860332       1.25000000
       225    1      -25.98000610      53.99840913       1.25000000
       226    1      -25.98008438      56.99847074       1.25000000
       227    1      -28.57800661      58.49827656       1.25000000
       228    1      -28.57808489      61.49833817       1.25000000
       229    1      -31.17600712      62.99814398       1.25000000
       230    1      -31.17608540      65.99820560       1.25000000
       231    1      -33.77400762      67.49801141       1.25000000
       232    1      -33.77408590      70.49807303       1.25000000
       233    1      -36.37200813      71.99787884       1.25000000
       234    1      -36.37208641      74.99794045       1.25000000
       235    1      -38.97000864      76.49774627       1.25000000
       236    1      -38.97008692      79.49780788       1.25000000
       237    1      -41.56800915      80.99761369       1.25000000
       238    1      -41.56808743      83.99767531       1.25000000
       239    1      -44.16600966      85.49748112       1.25000000
       240    1      -44.16608794      88.49754274       1.25000000
       241    1      -46.76401017      89.99734855       1.25000000
       242    1      -46.76408844      92.99741016       1.25000000
       243    1      -49.36201067      94.49721598       1.25000000
       244    1      -49.36208895      97.49727759       1.25000000
       245    1      -51.96001118      98.99708340       1.25000000
       246    1      -51.96008946     101.99714502       1.25000000
       247    1      -54.55801169     103.49695083       1.25000000
       248    1      -54.55808997     106.49701245       1.25000000
       249    1      -57.15601220     107.99681826       1.25000000
       250    1      -57.15609048     110.99687987       1.25000000
       251    1      -59.75401271     112.49668569       1.25000000
       252    1      -59.75409099     115.49674730       1.25000000
       253    1      -62.35201322     116.99655311       1.25000000
       254    1      -62.35209149     119.99661473       1.25000000
       255    1      -64.95001372     121.49642054       1.25000000
       256    1      -64.95009200     124.49648216       1.25000000
       257    1      -67.54801423     125.99628797       1.25000000
       258    1      -67.54809251     128.99634958       1.25000000
       259    1      -70.14601474     130.49615540       1.25000000
       260    1      -70.14609302     133.49621701       1.25000000
       261    1      -72.74401525     134.99602282       1.25000000
       262    1      -72.74409353     137.99608444       1.25000000
       263    1      -75.34201576     139.49589025       1.25000000
       264    1      -75.34209404     142.49595187       1.25000000
       265    1      -77.94001627     143.99575768       1.25000000
       266    1      -77.94009454     146.99581929       1.25000000
       267    1      -80.53801677     148.49562511       1.25000000
       268    1      -80.53809505     151.49568672       1.25000000
       269    1      -83.13601728     152.99549253       1.25000000
       270    1      -83.13609556     155.99555415       1.25000000
       271    1      -85.73401779     157.49535996       1.25000000
       272    1      -85.73409607     160.49542158       1.25000000
       273    1      -88.33201830     161.99522739       1.25000000
       274    1      -88.33209658     164.99528900       1.25000000
       275    1      -90.93001881     166.49509482       1.25000000
       276    1      -90.93009709     169.49515643       1.25000000
       277    1      -93.52801932     170.99496224       1.25000000
       278    1      -93.52809759     173.99502386       1.25000000
       279    1      -96.12601982     175.49482967       1.25000000
       280    1      -96.12609810     178.49489129       1.25000000
       281    1      -98.72402033     179.99469710       1.25000000
       282    1      -98.72409861     182.99475871       1.25000000
       283    1     -101.32202084     184.49456453       1.25000000
       284    1     -101.32209912     187.49462614       1.25000000
       285    1     -103.92002135     188.99443195       1.25000000
       286    1     -103.92009963     191.99449357       1.25000000
       287    1     -106.51802186     193.49429938       1.25000000
       288    1     -106.51810014     196.49436100       1.25000000
       289    1     -109.11602237     197.99416681       1.25000000
       290    1     -109.11610064     200.99422842       1.25000000
       291    1     -111.71402287     202.49403424       1.25000000
       292    1     -111.71410115     205.49409585       1.25000000
       293    1     -114.31202338     206.99390166       1.25000000
       294    1     -114.31210166     209.99396328       1.25000000
       295    1     -116.91002389     211.49376909       1.25000000
       296    1     -116.91010217     214.49383070       1.25000000
       297    1     -119.50802440     215.99363652       1.25000000
       298    1     -119.50810268     218.99369813       1.25000000
       299    1     -122.10602491     220.49350395       1.25000000
       300    1     -122.10610319     223.49356556       1.25000000
       301    1     -124.70402542     224.99337137       1.25000000
       302    1     -124.70410369     227.99343299       1.25000000
       303    1     -127.30202592     229.49323880       1.25000000
       304    1     -127.30210420     232.49330041       1.25000000
       305    1     -129.90002643     233.99310623       1.25000000
       306    1     -129.90010471     236.99316784       1.25000000
       307    1     -132.49802694     238.49297366       1.25000000
       308    1     -132.49810522     241.49303527       1.25000000
       309    1     -135.09602745     242.99284108       1.25000000
       310    1     -135.09610573     245.99290270       1.25000000
       311    1     -137.69402796     247.49270851       1.25000000
       312    1     -137.69410624     250.49277012       1.25000000
       313    1     -140.29202846     251.99257594       1.25000000
       314    1     -140.29210674     254.99263755       1.25000000
       315    1     -142.89002897     256.49244337       1.25000000
       316    1     -142.89010725     259.49250498       1.25000000
       317    1     -145.48802948     260.99231079       1.25000000
       318    1     -145.48810776     263.99237241       1.25000000
       319    1     -148.08602999     265.49217822       1.25000000
       320    1     -148.08610827     268.49223983       1.25000000
       321    1     -150.68403050     269.99204565       1.25000000
       322    1     -150.68410878     272.99210726       1.25000000
       323    1     -153.28203101     274.49191308       1.25000000
       324    1     -153.28210929     277.49197469       1.25000000
       325    1     -155.88003151     278.99178050       1.25000000
       326    1     -155.88010979     281.99184212       1.25000000
       327    1     -158.47803202     283.49164793       1.25000000
       328    1     -158.47811030     286.49170954       1.25000000
       329    1     -161.07603253     287.99151536       1.25000000
       330    1     -161.07611081     290.99157697       1.25000000
       331    1     -163.67403304     292.49138279       1.25000000
       332    1     -163.67411132     295.49144440       1.25000000
       333    1     -166.27203355     296.99125021       1.25000000
       334    1     -166.27211183     299.99131183       1.25000000
       335    1     -168.87003406     301.49111764       1.25000000
       336    1     -168.87011233     304.49117925       1.25000000
       337    1     -171.46803456     305.99098507       1.25000000
       338    1     -171.46811284     308.99104668       1.25000000
       339    1     -174.06603507     310.49085250       1.25000000
       340    1     -174.06611335     313.49091411       1.25000000
       341    1     -176.66403558     314.99071992       1.25000000
       342    1     -176.66411386     317.99078154       1.25000000
       343    1     -179.26203609     319.49058735       1.25000000
       344    1     -179.26211437     322.49064896       1.25000000
       345    1     -181.86003660     323.99045478       1.25000000
       346    1     -181.86011488     326.99051639       1.25000000
       347    1     -184.45803711     328.49032221       1.25000000
       348    1     -184.45811538     331.49038382       1.25000000
       349    1     -187.05603761     332.99018963       1.25000000
       350    1     -187.05611589     335.99025125       1.25000000
       351    1     -189.65403812     337.49005706       1.25000000
       352    1     -189.65411640     340.49011867       1.25000000
       353    1     -192.25203863     341.98992449       1.25000000
       354    1     -192.25211691     344.98998610       1.25000000
       355    1     -194.85003914     346.48979192       1.25000000
       356    1     -194.85011742     349.48985353       1.25000000
       357    1     -197.44803965     350.98965934       1.25000000
       358    1     -197.44811793     353.98972096       1.25000000
       359    1     -200.04604016     355.48952677       1.25000000
       360    1     -200.04611843     358.48958838       1.25000000
       361    1     -202.64404066     359.98939420       1.25000000
       362    1     -202.64411894     362.98945581       1.25000000
       363    1     -205.24204117     364.48926162       1.25000000
       364    1     -205.24211945     367.48932324       1.25000000
       365    1     -207.84004168     368.98912905       1.25000000
       366    1     -207.84011996     371.98919067       1.25000000
       367    1     -210.43804219     373.48899648       1.25000000
       368    1     -210.43812047     376.48905809       1.25000000
       369    1     -213.03604270     377.98886391       1.25000000
       370    1     -213.03612098     380.98892552       1.25000000
       371    1     -215.63404321     382.48873133       1.25000000
       372    1     -215.63412148     385.48879295       1.25000000
       373    1     -218.23204371     386.98859876       1.25000000
       374    1     -218.23212199     389.98866038       1.25000000
       375    1     -220.83004422     391.48846619       1.25000000
       376    1     -220.83012250     394.48852780       1.25000000
       377    1     -223.42804473     395.98833362       1.25000000
       378    1     -223.42812301     398.98839523       1.25000000
       379    1     -226.02604524     400.48820104       1.25000000
       380    1     -226.02612352     403.48826266       1.25000000
       381    1     -228.62404575     404.98806847       1.25000000
       382    1     -228.62412403     407.98813009       1.25000000
       383    1     -231.22204626     409.48793590       1.25000000
       384    1     -231.22212453     412.48799751       1.25000000
       385    1     -233.82004676     413.98780333       1.25000000
       386    1     -233.82012504     416.98786494       1.25000000
       387    1     -236.41804727     418.48767075       1.25000000
       388    1     -236.41812555     421.48773237       1.25000000
       389    1     -239.01604778     422.98753818       1.25000000
       390    1     -239.01612606     425.98759980       1.25000000
       391    1     -241.61404829     427.48740561       1.25000000
       392    1     -241.61412657     430.48746722       1.25000000
       393    1     -244.21204880     431.98727304       1.25000000
       394    1     -244.21212708     434.98733465       1.25000000
       395    1     -246.81004931     436.48714046       1.25000000
       396    1     -246.81012758     439.48720208       1.25000000
       397    1     -249.40804981     440.98700789       1.25000000
       398    1     -249.40812809     443.98706951       1.25000000
       399    1     -252.00605032     445.48687532       1.25000000
       400    1     -252.00612860     448.48693693       1.25000000
       401    1        7.79399949       4.49986743       1.25000000
       402    1        7.79392121       7.49992904       1.25000000
       403    1        5.19599898       8.99973485       1.25000000
       404    1        5.19592070      11.99979647       1.25000000
       405    1        2.59799848      13.49960228       1.25000000
       406    1        2.59792020      16.49966390       1.25000000
       407    1       -0.00000203      17.99946971       1.25000000
       408    1       -0.00008031      20.99953132       1.25000000
       409    1       -2.59800254      22.49933714       1.25000000
       410    1       -2.59808082      25.49939875       1.25000000
       411    1       -5.19600305      26.99920456       1.25000000
       412    1       -5.19608133      29.99926618       1.25000000
       413    1       -7.79400356      31.49907199       1.25000000
       414    1       -7.79408184      34.49913361       1.25000000
       415    1      -10.39200407      35.99893942       1.25000000
       416    1      -10.39208235      38.99900103       1.25000000
       417    1      -12.99000457      40.49880685       1.25000000
       418    1      -12.99008285      43.49886846       1.25000000
       419    1      -15.58800508      44.99867427       1.25000000
       420    1      -15.58808336      47.99873589       1.25000000
       421    1      -18.18600559      49.49854170       1.25000000
       422    1      -18.18608387      52.49860332       1.25000000
       423    1      -20.78400610      53.99840913       1.25000000
       424    1      -20.78408438      56.99847074       1.25000000
       425    1      -23.38200661      58.49827656       1.25000000
       426    1      -23.38208489      61.49833817       1.25000000
       427    1      -25.98000712      62.99814398       1.25000000
       428    1      -25.98008540      65.99820560       1.25000000
       429    1      -28.57800762      67.49801141       1.25000000
       430    1      -28.57808590      70.49807303       1.25000000
       431    1      -31.17600813      71.99787884       1.25000000
       432    1      -31.17608641      74.99794045       1.25000000
       433    1      -33.77400864      76.49774627       1.25000000
       434    1      -33.77408692      79.49780788       1.25000000
       435    1      -36.37200915      80.99761369       1.25000000