 # File generated with Atomsk by ml on 2021-02-14 19:06:30
 
          32  atoms
           2  atom types
 
      0.000000000000      14.085000000000  xlo xhi
      0.000000000000      16.264000000000  ylo yhi
      0.000000000000       2.830000000000  zlo zhi
 
Masses
 
            1   69.72300000             # Ga
            2   74.92160000             # As
 
Atoms # charge
 
         1    1   0.000000        0.000000000000       0.000000000000       0.829982400000
         2    1   0.000000       14.085000000000       4.066000000000       0.829982400000
         3    1   0.000000       14.085000000000       8.132000000000       0.829982400000
         4    1   0.000000       14.085000000000      12.198000000000       0.829982400000
         5    1   0.000000        3.521250000000       2.033000000000       0.829982400000
         6    1   0.000000        3.521250000000       6.099000000000       0.829982400000
         7    1   0.000000        3.521250000000      10.165000000000       0.829982400000
         8    1   0.000000        3.521250000000      14.231000000000       0.829982400000
         9    1   0.000000        7.042500000000       0.000000000000       0.829982400000
        10    1   0.000000        7.042500000000       4.066000000000       0.829982400000
        11    1   0.000000        7.042500000000       8.132000000000       0.829982400000
        12    1   0.000000        7.042500000000      12.198000000000       0.829982400000
        13    1   0.000000       10.563750000000       2.033000000000       0.829982400000
        14    1   0.000000       10.563750000000       6.099000000000       0.829982400000
        15    1   0.000000       10.563750000000      10.165000000000       0.829982400000
        16    1   0.000000       10.563750000000      14.231000000000       0.829982400000
        17    2   0.000000        2.347546950000       0.000000000000       0.000000000000
        18    2   0.000000        2.347546950000       4.066000000000       0.000000000000
        19    2   0.000000        2.347546950000       8.132000000000       0.000000000000
        20    2   0.000000        2.347546950000      12.198000000000       0.000000000000
        21    2   0.000000        5.868796950000       2.033000000000       0.000000000000
        22    2   0.000000        5.868796950000       6.099000000000       0.000000000000
        23    2   0.000000        5.868796950000      10.165000000000       0.000000000000
        24    2   0.000000        5.868796950000      14.231000000000       0.000000000000
        25    2   0.000000        9.390046950000       0.000000000000       0.000000000000
        26    2   0.000000        9.390046950000       4.066000000000       0.000000000000
        27    2   0.000000        9.390046950000       8.132000000000       0.000000000000
        28    2   0.000000        9.390046950000      12.198000000000       0.000000000000
        29    2   0.000000       12.911296950000       2.033000000000       0.000000000000
        30    2   0.000000       12.911296950000       6.099000000000       0.000000000000
        31    2   0.000000       12.911296950000      10.165000000000       0.000000000000
        32    2   0.000000       12.911296950000      14.231000000000       0.000000000000
