 # File generated with Atomsk by Abdullah on 2021-02-14 12:41:46
 
          32  atoms
           2  atom types
 
      0.00000000      14.08500000  xlo xhi
      0.00000000      16.26400000  ylo yhi
      0.00000000       2.83000000  zlo zhi
 
Masses
 
           1   69.72300000    # Ga
           2   74.92160000    # As
 
Atoms # atomic
 
         1    1        0.00000000       0.00000000       0.82998240
         2    1       14.08500000       4.06600000       0.82998240
         3    1       14.08500000       8.13200000       0.82998240
         4    1       14.08500000      12.19800000       0.82998240
         5    1        3.52125000       2.03300000       0.82998240
         6    1        3.52125000       6.09900000       0.82998240
         7    1        3.52125000      10.16500000       0.82998240
         8    1        3.52125000      14.23100000       0.82998240
         9    1        7.04250000       0.00000000       0.82998240
        10    1        7.04250000       4.06600000       0.82998240
        11    1        7.04250000       8.13200000       0.82998240
        12    1        7.04250000      12.19800000       0.82998240
        13    1       10.56375000       2.03300000       0.82998240
        14    1       10.56375000       6.09900000       0.82998240
        15    1       10.56375000      10.16500000       0.82998240
        16    1       10.56375000      14.23100000       0.82998240
        17    2        2.34754695       0.00000000       0.00000000
        18    2        2.34754695       4.06600000       0.00000000
        19    2        2.34754695       8.13200000       0.00000000
        20    2        2.34754695      12.19800000       0.00000000
        21    2        5.86879695       2.03300000       0.00000000
        22    2        5.86879695       6.09900000       0.00000000
        23    2        5.86879695      10.16500000       0.00000000
        24    2        5.86879695      14.23100000       0.00000000
        25    2        9.39004695       0.00000000       0.00000000
        26    2        9.39004695       4.06600000       0.00000000
        27    2        9.39004695       8.13200000       0.00000000
        28    2        9.39004695      12.19800000       0.00000000
        29    2       12.91129695       2.03300000       0.00000000
        30    2       12.91129695       6.09900000       0.00000000
        31    2       12.91129695      10.16500000       0.00000000
        32    2       12.91129695      14.23100000       0.00000000
