LAMMPS (29 Oct 2020)
# sample LAMMPS input script for thermal conductivity of Pb
# Muller-Plathe method via fix thermal_conductivity


# setup problem
variable    t equal 300
variable    dt equal 0.001

units		metal
boundary    p p p
atom_style	atomic

read_data   Plumbene_new.lmpdat
Reading data file ...
  orthogonal box = (0.0000000 0.0000000 0.0000000) to (44.998699 51.959999 20.000000)
  2 by 3 by 1 MPI processor grid
  reading atoms ...
  200 atoms
  read_data CPU = 0.002 seconds
replicate       50 5 1
Replicating atoms ...
  orthogonal box = (0.0000000 0.0000000 0.0000000) to (2249.9350 259.80000 20.000000)
  6 by 1 by 1 MPI processor grid
  50000 atoms
  replicate CPU = 0.002 seconds
mass		1 207.20000  ##Lead

pair_style      eam/alloy
pair_coeff      * * Pb.eam.alloy Pb
Reading eam/alloy potential file Pb.eam.alloy with DATE: 2018-03-30

neighbor	2.0 bin
neigh_modify	 delay 0 every 1 check yes
timestep     ${dt}
timestep     0.001

# 1st equilibration run
velocity	all create $t 345352 mom yes rot yes dist gaussian
velocity	all create 300 345352 mom yes rot yes dist gaussian

fix		1 all nvt temp $t $t 10 drag 0.2
fix		1 all nvt temp 300 $t 10 drag 0.2
fix		1 all nvt temp 300 300 10 drag 0.2
thermo	 1000
run		400000
Neighbor list info ...
  update every 1 steps, delay 0 steps, check yes
  max neighbors/atom: 2000, page size: 100000
  master list distance cutoff = 9.8256185
  ghost atom cutoff = 9.8256185
  binsize = 4.9128093, bins = 458 53 5
  1 neighbor lists, perpetual/occasional/extra = 1 0 0
  (1) pair eam/alloy, perpetual
      attributes: half, newton on
      pair build: half/bin/atomonly/newton
      stencil: half/bin/3d/newton
      bin: standard
Per MPI rank memory allocation (min/avg/max) = 7.825 | 7.828 | 7.833 Mbytes
Step Temp E_pair E_mol TotEng Press 
       0          300   -56697.932            0   -54759.069    622.92437 
    1000    776.01949   -59782.961            0   -54767.642   -2929.5469 
    2000    983.13554   -61193.315            0    -54839.43   -1618.3788 
    3000    1338.7549   -63649.024            0   -54996.815   -914.01649 
    4000    1580.6435   -65485.671            0   -55270.165   -435.28181 
    5000     1704.484   -66650.522            0   -55634.651   -321.12502 
    6000    1746.6136   -67348.147            0   -56059.997   -252.25265 
    7000     1782.346   -68048.073            0   -56528.988   -174.44675 
    8000    1797.2852   -68643.642            0   -57028.007   -123.98047 
    9000    1796.1945   -69158.299            0   -57549.713   -122.75488 
   10000    1803.5601    -69745.01            0   -58088.821   -140.40847 
   11000    1808.4754   -70329.331            0   -58641.375   -102.53068 
   12000    1796.9085   -70816.492            0   -59203.292   -138.68518 
   13000    1801.6778   -71414.457            0   -59770.432   -108.14066 
   14000    1785.6016   -71886.468            0   -60346.342   -120.40637 
   15000    1787.5604   -72480.671            0   -60927.887   -162.80522 
   16000    1779.2974    -73012.56            0   -61513.178   -110.61096 
   17000    1770.3056   -73540.761            0   -62099.492   -122.40207 
   18000    1756.6633   -74039.263            0   -62686.162    -168.6808 
   19000    1756.9851   -74629.553            0   -63274.373    -125.4957 
   20000    1742.6105   -75126.072            0   -63863.793   -123.44727 
   21000    1729.7844    -75628.86            0   -64449.474   -143.40738 
   22000    1717.7244   -76134.414            0   -65032.971   -94.822021 
   23000    1700.9502   -76603.739            0   -65610.705   -101.35634 
   24000    1688.0339   -77092.091            0   -66182.533   -139.65384 
   25000    1663.2501     -77497.7            0   -66748.317   -132.23271 
   26000    1637.2275   -77886.521            0   -67305.319    -150.4508 
   27000    1622.1848   -78335.633            0    -67851.65   -87.834918 
   28000     1594.204    -78691.61            0   -68388.465   -152.04026 
   29000    1578.3655   -79116.774            0    -68915.99   -99.167082 
   30000    1555.1603   -79485.107            0   -69434.296   -134.20112 
   31000    1532.4438   -79846.921            0   -69942.924   -117.62122 
   32000    1503.4454   -80157.676            0   -70441.092   -85.412863 
   33000    1476.0446   -80465.839            0   -70926.343   -94.425539 
   34000     1455.723    -80807.48            0    -71399.32   -76.451258 
   35000    1426.4308   -81080.944            0   -71862.096   -115.87916 
   36000     1398.161   -81347.203            0   -72311.059   -97.514872 
   37000    1378.5435   -81657.123            0   -72747.765   -133.30107 
   38000    1350.7526   -81902.295            0   -73172.546   -104.55718 
   39000    1336.2498   -82223.998            0   -73587.979   -100.62074 
   40000    1308.0025   -82445.185            0   -73991.724   -94.241921 
   41000    1286.6218   -82699.131            0   -74383.851   -61.606612 
   42000     1261.041   -82914.827            0   -74764.873   -81.576079 
   43000    1236.1743    -83123.94            0   -75134.696   -118.06491 
   44000    1217.3492   -83362.697            0   -75495.118   -75.941683 
   45000      1199.89   -83600.594            0   -75845.852   -60.753635 
   46000    1176.5407   -83790.171            0   -76186.332   -95.535234 
   47000    1151.7066   -83959.485            0   -76516.146    -100.2927 
   48000    1138.8434   -84196.396            0    -76836.19   -147.18233 
   49000    1121.5904   -84396.936            0   -77148.234    -94.18731 
   50000    1100.5793   -84564.709            0   -77451.799   -96.400721 
   51000    1081.3432   -84734.828            0   -77746.239   -111.41644 
   52000    1058.9252   -84876.113            0   -78032.409    -53.07455 
   53000    1045.2757   -85065.703            0   -78310.214   -118.22567 
   54000    1028.8043   -85229.706            0    -78580.67   -80.928682 
   55000     1007.535   -85354.917            0   -78843.341   -81.746413 
   56000    993.10632   -85517.007            0   -79098.682   -74.096507 
   57000    979.69689   -85678.488            0   -79346.826   -139.43486 
   58000    966.88442   -85836.877            0   -79588.021   -102.82771 
   59000    952.54812   -85979.838            0   -79823.636   -105.38666 
   60000    936.33724   -86103.815            0   -80052.382    -64.56559 
   61000     926.1473   -86262.426            0   -80276.849   -70.012721 
   62000    908.54889   -86366.215            0   -80494.374   -126.01827 
   63000    899.55137   -86519.291            0     -80705.6   -89.361749 
   64000    882.15058    -86612.98            0   -80911.749   -66.197114 
   65000    868.20018   -86723.419            0   -81112.347   -109.57674 
   66000    856.55568   -86843.034            0   -81307.219   -70.929696 
   67000    848.01868   -86977.944            0   -81497.303   -79.590492 
   68000    837.34753   -87094.278            0   -81682.603    -80.76431 
   69000    825.41768   -87198.606            0   -81864.032   -123.49834 
   70000    816.29446   -87316.174            0   -82040.562   -81.077614 
   71000    802.63955   -87400.135            0   -82212.774   -74.850686 
   72000    791.82129   -87498.262            0   -82380.818   -76.196312 
   73000    785.36248   -87619.889            0   -82544.187   -103.87864 
   74000    771.04915   -87686.901            0   -82703.705   -102.10099 
   75000    764.26759   -87798.144            0   -82858.776   -74.653465 
   76000    755.86107   -87895.771            0   -83010.733   -88.631038 
   77000    744.83296   -87972.722            0   -83158.957    -119.2422 
   78000    738.51744   -88076.406            0   -83303.458   -93.517819 
   79000     730.9965    -88169.85            0   -83445.509   -76.884416 
   80000    722.40469   -88253.034            0   -83584.221   -121.83958 
   81000    711.88505   -88320.399            0   -83719.573   -108.58734 
   82000    702.83619   -88394.059            0   -83851.715   -103.66174 
   83000    697.09246   -88486.469            0   -83981.246    -106.2485 
   84000     691.6479   -88577.897            0   -84107.861   -87.513821 
   85000    686.97917   -88671.912            0   -84232.049   -87.398915 
   86000     676.1657   -88722.886            0   -84352.909   -110.91054 
   87000    667.30358   -88784.047            0   -84471.345   -90.219192 
   88000    661.47932   -88862.225            0   -84587.165   -87.978467 
   89000    655.44605    -88936.75            0   -84700.682   -45.193362 
   90000    651.16008   -89020.673            0   -84812.304   -96.719153 
   91000    643.78509   -89081.831            0   -84921.126   -71.887728 
   92000     638.5037   -89154.391            0   -85027.819   -76.315309 
   93000    630.00922   -89203.939            0   -85132.266   -112.37809 
   94000    625.85064    -89279.37            0   -85234.574   -60.476994 
   95000    621.18308   -89349.485            0   -85334.854   -92.616746 
   96000    614.70822   -89406.067            0   -85433.282   -73.798195 
   97000    604.75601   -89438.019            0   -85529.554   -76.659745 
   98000     600.5279   -89505.042            0   -85623.903    -108.1538 
   99000    598.57883   -89584.659            0   -85716.117   -67.528549 
  100000    591.17722   -89627.547            0    -85806.84   -91.070949 
  101000    586.88171   -89688.729            0   -85895.784   -49.763392 
  102000     579.6316   -89729.061            0   -85982.973   -92.030143 
  103000    576.04112    -89791.26            0   -86068.377    -78.22633 
  104000    574.35912   -89864.499            0   -86152.486   -70.594854 
  105000    567.38431   -89901.746            0    -86234.81   -95.308875 
  106000    562.13689   -89948.571            0   -86315.549   -102.76143 
  107000    560.41026   -90016.618            0   -86394.755   -79.299037 
  108000     553.6234   -90050.516            0   -86472.515   -78.646183 
  109000    551.49186   -90113.138            0   -86548.914   -77.449352 
  110000    544.02147   -90139.802            0   -86623.857   -75.584989 
  111000    541.74148   -90198.711            0   -86697.502   -84.472412 
  112000     536.0811   -90234.321            0   -86769.694   -77.135668 
  113000    534.12732   -90292.451            0   -86840.451   -95.611295 
  114000    526.33555   -90311.256            0   -86909.614    -114.6722 
  115000    524.20133   -90365.429            0   -86977.579   -80.657004 
  116000    522.48867    -90421.11            0    -87044.33   -113.62234 
  117000    516.37317   -90447.059            0   -87109.802   -78.475472 
  118000    512.64294   -90487.337            0   -87174.188   -139.89017 
  119000    509.24723   -90528.543            0    -87237.34   -63.992514 
  120000    504.14252   -90557.785            0   -87299.573   -86.753322 
  121000    500.09603   -90592.616            0   -87360.557     -103.281 
  122000    498.84382   -90644.529            0   -87420.562   -90.654711 
  123000    498.48484   -90701.297            0   -87479.651   -89.449218 
  124000    493.31959   -90726.109            0   -87537.844   -83.879093 
  125000    491.64867   -90772.438            0   -87594.972   -91.330701 
  126000    488.51362   -90808.301            0   -87651.097   -97.676669 
  127000    482.73942   -90826.207            0   -87706.321   -97.813451 
  128000    481.34088   -90871.502            0   -87760.655   -73.331741 
  129000    476.42368   -90892.998            0    -87813.93   -85.843031 
  130000    475.27825   -90938.174            0   -87866.508   -85.031172 
  131000    472.22852    -90970.26            0   -87918.305   -74.211373 
  132000     465.4479   -90977.183            0    -87969.05    -88.12765 
  133000    465.04346   -91024.309            0    -88018.79   -102.89034 
  134000    461.87202   -91052.887            0   -88067.864   -65.414399 
  135000    462.14452   -91103.017            0   -88116.234   -85.565367 
  136000    457.72134   -91122.115            0   -88163.918   -74.124775 
  137000    453.21894   -91139.774            0   -88210.675    -98.83949 
  138000    452.77272   -91182.847            0   -88256.632   -59.517135 
  139000    451.71093   -91221.522            0   -88302.16