 # File generated with Atomsk by arman on 2021-01-12 11:50:25
 
          18  atoms
           1  atom types
 
      0.00000000      15.58800000  xlo xhi
      0.00000000      13.49960399  ylo yhi
      0.00000000       5.00000000  zlo zhi
     -7.79400000       0.00000000       0.00000000  xy xz yz
 
Masses
 
           1   207.20000000    # Pb
 
Atoms # atomic
 
         1    1        0.00000000       0.00000000       1.25000000
         2    1        0.00000000       2.99990900       1.25000000
         3    1       -2.59540200       4.49536813       1.25000000
         4    1       -2.59540200       7.49527713       1.25000000
         5    1       -5.19859800       9.00423586       1.25000000
         6    1       -5.19859800      12.00414486       1.25000000
         7    1        5.19080400       0.00000000       1.25000000
         8    1        5.19080400       2.99990900       1.25000000
         9    1        2.59540200       4.49536813       1.25000000
        10    1        2.59540200       7.49527713       1.25000000
        11    1       -0.00779400       9.00423586       1.25000000
        12    1       -0.00779400      12.00414486       1.25000000
        13    1        7.78620600       4.49536813       1.25000000
        14    1        7.78620600       7.49527713       1.25000000
        15    1        5.19080400       8.99073626       1.25000000
        16    1        5.19080400      11.99064526       1.25000000
        17    1       10.38160800       0.00000000       1.25000000
        18    1       10.38160800       2.99990900       1.25000000
