 # File generated with Atomsk by Abdullah on 2021-01-12 15:40:24
 
         200  atoms
           1  atom types
 
      0.00000000      44.99869900  xlo xhi
      0.00000000      51.95999900  ylo yhi
      0.00000000      20.00000000  zlo zhi
 
Masses
 
           1   207.20000000    # Pb
 
Atoms # atomic
 
         1    1        0.00000000       0.00000000       0.00000000
         2    1        0.00000000      25.97999950       0.00000000
         3    1       22.49934950      12.98999975       0.00000000
         4    1       22.49934950      38.96999925       0.00000000
         5    1        1.49980664       2.59799995       0.00000000
         6    1        1.49980664      28.57799945       0.00000000
         7    1       23.99915614      15.58799970       0.00000000
         8    1       23.99915614      41.56799920       0.00000000
         9    1        4.49986990      23.38199955       0.00000000
        10    1        4.49986990      49.36199905       0.00000000
        11    1       26.99921940      10.39199980       0.00000000
        12    1       26.99921940      36.37199930       0.00000000
        13    1        5.99967654       0.00000000       0.00000000
        14    1        5.99967654      25.97999950       0.00000000
        15    1       28.49902604      12.98999975       0.00000000
        16    1       28.49902604      38.96999925       0.00000000
        17    1        8.99973980      20.78399960       0.00000000
        18    1        8.99973980      46.76399910       0.00000000
        19    1       31.49908930       7.79399985       0.00000000
        20    1       31.49908930      33.77399935       0.00000000
        21    1       10.49954644      23.38199955       0.00000000
        22    1       10.49954644      49.36199905       0.00000000
        23    1       32.99889594      10.39199980       0.00000000
        24    1       32.99889594      36.37199930       0.00000000
        25    1       13.49960970      18.18599965       0.00000000
        26    1       13.49960970      44.16599915       0.00000000
        27    1       35.99895920       5.19599990       0.00000000
        28    1       35.99895920      31.17599940       0.00000000
        29    1       14.99941634      20.78399960       0.00000000
        30    1       14.99941634      46.76399910       0.00000000
        31    1       37.49876584       7.79399985       0.00000000
        32    1       37.49876584      33.77399935       0.00000000
        33    1       17.99947960      15.58799970       0.00000000
        34    1       17.99947960      41.56799920       0.00000000
        35    1       40.49882910       2.59799995       0.00000000
        36    1       40.49882910      28.57799945       0.00000000
        37    1       19.49928624      18.18599965       0.00000000
        38    1       19.49928624      44.16599915       0.00000000
        39    1       41.99863574       5.19599990       0.00000000
        40    1       41.99863574      31.17599940       0.00000000
        41    1        0.00000000       5.19599990       0.00000000
        42    1       44.99869900      31.17599940       0.00000000
        43    1       22.49934950      18.18599965       0.00000000
        44    1       22.49934950      44.16599915       0.00000000
        45    1        1.49980664       7.79399985       0.00000000
        46    1        1.49980664      33.77399935       0.00000000
        47    1       23.99915614      20.78399960       0.00000000
        48    1       23.99915614      46.76399910       0.00000000
        49    1        4.49986990       2.59799995       0.00000000
        50    1        4.49986990      28.57799945       0.00000000
        51    1       26.99921940      15.58799970       0.00000000
        52    1       26.99921940      41.56799920       0.00000000
        53    1        5.99967654       5.19599990       0.00000000
        54    1        5.99967654      31.17599940       0.00000000
        55    1       28.49902604      18.18599965       0.00000000
        56    1       28.49902604      44.16599915       0.00000000
        57    1        8.99973980       0.00000000       0.00000000
        58    1        8.99973980      25.97999950       0.00000000
        59    1       31.49908930      12.98999975       0.00000000
        60    1       31.49908930      38.96999925       0.00000000
        61    1       10.49954644       2.59799995       0.00000000
        62    1       10.49954644      28.57799945       0.00000000
        63    1       32.99889594      15.58799970       0.00000000
        64    1       32.99889594      41.56799920       0.00000000
        65    1       13.49960970      23.38199955       0.00000000
        66    1       13.49960970      49.36199905       0.00000000
        67    1       35.99895920      10.39199980       0.00000000
        68    1       35.99895920      36.37199930       0.00000000
        69    1       14.99941634       0.00000000       0.00000000
        70    1       14.99941634      25.97999950       0.00000000
        71    1       37.49876584      12.98999975       0.00000000
        72    1       37.49876584      38.96999925       0.00000000
        73    1       17.99947960      20.78399960       0.00000000
        74    1       17.99947960      46.76399910       0.00000000
        75    1       40.49882910       7.79399985       0.00000000
        76    1       40.49882910      33.77399935       0.00000000
        77    1       19.49928624      23.38199955       0.00000000
        78    1       19.49928624      49.36199905       0.00000000
        79    1       41.99863574      10.39199980       0.00000000
        80    1       41.99863574      36.37199930       0.00000000
        81    1        0.00000000      10.39199980       0.00000000
        82    1        0.00000000      36.37199930       0.00000000
        83    1       22.49934950      23.38199955       0.00000000
        84    1       22.49934950      49.36199905       0.00000000
        85    1        1.49980664      12.98999975       0.00000000
        86    1        1.49980664      38.96999925       0.00000000
        87    1       23.99915614       0.00000000       0.00000000
        88    1       23.99915614      25.97999950       0.00000000
        89    1        4.49986990       7.79399985       0.00000000
        90    1        4.49986990      33.77399935       0.00000000
        91    1       26.99921940      20.78399960       0.00000000
        92    1       26.99921940      46.76399910       0.00000000
        93    1        5.99967654      10.39199980       0.00000000
        94    1        5.99967654      36.37199930       0.00000000
        95    1       28.49902604      23.38199955       0.00000000
        96    1       28.49902604      49.36199905       0.00000000
        97    1        8.99973980       5.19599990       0.00000000
        98    1        8.99973980      31.17599940       0.00000000
        99    1       31.49908930      18.18599965       0.00000000
       100    1       31.49908930      44.16599915       0.00000000
       101    1       10.49954644       7.79399985       0.00000000
       102    1       10.49954644      33.77399935       0.00000000
       103    1       32.99889594      20.78399960       0.00000000
       104    1       32.99889594      46.76399910       0.00000000
       105    1       13.49960970       2.59799995       0.00000000
       106    1       13.49960970      28.57799945       0.00000000
       107    1       35.99895920      15.58799970       0.00000000
       108    1       35.99895920      41.56799920       0.00000000
       109    1       14.99941634       5.19599990       0.00000000
       110    1       14.99941634      31.17599940       0.00000000
       111    1       37.49876584      18.18599965       0.00000000
       112    1       37.49876584      44.16599915       0.00000000
       113    1       17.99947960       0.00000000       0.00000000
       114    1       17.99947960      25.97999950       0.00000000
       115    1       40.49882910      12.98999975       0.00000000
       116    1       40.49882910      38.96999925       0.00000000
       117    1       19.49928624       2.59799995       0.00000000
       118    1       19.49928624      28.57799945       0.00000000
       119    1       41.99863574      15.58799970       0.00000000
       120    1       41.99863574      41.56799920       0.00000000
       121    1       44.99869900      15.58799970       0.00000000
       122    1        0.00000000      41.56799920       0.00000000
       123    1       22.49934950       2.59799995       0.00000000
       124    1       22.49934950      28.57799945       0.00000000
       125    1        1.49980664      18.18599965       0.00000000
       126    1        1.49980664      44.16599915       0.00000000
       127    1       23.99915614       5.19599990       0.00000000
       128    1       23.99915614      31.17599940       0.00000000
       129    1        4.49986990      12.98999975       0.00000000
       130    1        4.49986990      38.96999925       0.00000000
       131    1       26.99921940       0.00000000       0.00000000
       132    1       26.99921940      25.97999950       0.00000000
       133    1        5.99967654      15.58799970       0.00000000
       134    1        5.99967654      41.56799920       0.00000000
       135    1       28.49902604       2.59799995       0.00000000
       136    1       28.49902604      28.57799945       0.00000000
       137    1        8.99973980      10.39199980       0.00000000
       138    1        8.99973980      36.37199930       0.00000000
       139    1       31.49908930      23.38199955       0.00000000
       140    1       31.49908930      49.36199905       0.00000000
       141    1       10.49954644      12.98999975       0.00000000
       142    1       10.49954644      38.96999925       0.00000000
       143    1       32.99889594       0.00000000       0.00000000
       144    1       32.99889594      25.97999950       0.00000000
       145    1       13.49960970       7.79399985       0.00000000
       146    1       13.49960970      33.77399935       0.00000000
       147    1       35.99895920      20.78399960       0.00000000
       148    1       35.99895920      46.76399910       0.00000000
       149    1       14.99941634      10.39199980       0.00000000
       150    1       14.99941634      36.37199930       0.00000000
       151    1       37.49876584      23.38199955       0.00000000
       152    1       37.49876584      49.36199905       0.00000000
       153    1       17.99947960       5.19599990       0.00000000
       154    1       17.99947960      31.17599940       0.00000000
       155    1       40.49882910      18.18599965       0.00000000
       156    1       40.49882910      44.16599915       0.00000000
       157    1       19.49928624       7.79399985       0.00000000
       158    1       19.49928624      33.77399935       0.00000000
       159    1       41.99863574      20.78399960       0.00000000
       160    1       41.99863574      46.76399910       0.00000000
       161    1        0.00000000      20.78399960       0.00000000
       162    1        0.00000000      46.76399910       0.00000000
       163    1       22.49934950       7.79399985       0.00000000
       164    1       22.49934950      33.77399935       0.00000000
       165    1        1.49980664      23.38199955       0.00000000
       166    1        1.49980664      49.36199905       0.00000000
       167    1       23.99915614      10.39199980       0.00000000
       168    1       23.99915614      36.37199930       0.00000000
       169    1        4.49986990      18.18599965       0.00000000
       170    1        4.49986990      44.16599915       0.00000000
       171    1       26.99921940       5.19599990       0.00000000
       172    1       26.99921940      31.17599940       0.00000000
       173    1        5.99967654      20.78399960       0.00000000
       174    1        5.99967654      46.76399910       0.00000000
       175    1       28.49902604       7.79399985       0.00000000
       176    1       28.49902604      33.77399935       0.00000000
       177    1        8.99973980      15.58799970       0.00000000
       178    1        8.99973980      41.56799920       0.00000000
       179    1       31.49908930       2.59799995       0.00000000
       180    1       31.49908930      28.57799945       0.00000000
       181    1       10.49954644      18.18599965       0.00000000
       182    1       10.49954644      44.16599915       0.00000000
       183    1       32.99889594       5.19599990       0.00000000
       184    1       32.99889594      31.17599940       0.00000000
       185    1       13.49960970      12.98999975       0.00000000
       186    1       13.49960970      38.96999925       0.00000000
       187    1       35.99895920       0.00000000       0.00000000
       188    1       35.99895920      25.97999950       0.00000000
       189    1       14.99941634      15.58799970       0.00000000
       190    1       14.99941634      41.56799920       0.00000000
       191    1       37.49876584       2.59799995       0.00000000
       192    1       37.49876584      28.57799945       0.00000000
       193    1       17.99947960      10.39199980       0.00000000
       194    1       17.99947960      36.37199930       0.00000000
       195    1       40.49882910      23.38199955       0.00000000
       196    1       40.49882910      49.36199905       0.00000000
       197    1       19.49928624      12.98999975       0.00000000
       198    1       19.49928624      38.96999925       0.00000000
       199    1       41.99863574       0.00000000       0.00000000
       200    1       41.99863574      25.97999950       0.00000000
